Program Version,EnergyPlus, Version 24.1.0-9d7789a3ac, YMD=2025.08.14 15:40
1,5,Environment Title[],Latitude[deg],Longitude[deg],Time Zone[],Elevation[m]
2,8,Day of Simulation[],Month[],Day of Month[],DST Indicator[1=yes 0=no],Hour[],StartMinute[],EndMinute[],DayType
3,5,Cumulative Day of Simulation[],Month[],Day of Month[],DST Indicator[1=yes 0=no],DayType  ! When Daily Report Variables Requested
4,2,Cumulative Days of Simulation[],Month[]  ! When Monthly Report Variables Requested
5,1,Cumulative Days of Simulation[] ! When Run Period Report Variables Requested
6,1,Calendar Year of Simulation[] ! When Annual Report Variables Requested
7,1,Environment,Site Outdoor Air Drybulb Temperature [C] !TimeStep
8,1,Environment,Site Outdoor Air Relative Humidity [%] !TimeStep
9,1,Environment,Site Wind Speed [m/s] !TimeStep
10,1,Environment,Site Wind Direction [deg] !TimeStep
11,1,Environment,Site Diffuse Solar Radiation Rate per Area [W/m2] !TimeStep
12,1,Environment,Site Direct Solar Radiation Rate per Area [W/m2] !TimeStep
13,1,SPACE5-1,Zone People Occupant Count [] !TimeStep
838,1,SPACE5-1,Zone Air Temperature [C] !TimeStep
839,1,SPACE5-1,Zone Air Relative Humidity [%] !TimeStep
902,1,SPACE5-1,Zone Thermostat Heating Setpoint Temperature [C] !TimeStep
903,1,SPACE5-1,Zone Thermostat Cooling Setpoint Temperature [C] !TimeStep
1051,1,Whole Building,Facility Total HVAC Electricity Demand Rate [W] !TimeStep
1313,1,Site,Environmental Impact Total CO2 Emissions Carbon Equivalent Mass [kg] !TimeStep
1078,1,Electricity:HVAC [J] !TimeStep
End of Data Dictionary
1,RUNPERIOD 1,  35.25, 136.93,   9.00,  17.00
2,1, 4, 1, 0, 1, 0.00,10.00,Monday
7,12.03928561713191
8,94.66666666666667
9,1.3333333333333333
10,306.6666666666667
11,0.0
12,0.0
13,0.0
838,20.08152504474496
839,66.33374177891274
902,12.8
903,40.0
1051,94.3811460135236
1313,0.0
1078,56628.68760811416
2,1, 4, 1, 0, 1,10.00,20.00,Monday
7,12.119196143769358
8,89.33333333333334
9,1.1666666666666667
10,313.3333333333333
11,0.0
12,0.0
13,0.0
838,20.032892442345325
839,66.32752569478076
902,12.0
903,26.16676902770996
1051,94.3811460135236
1313,0.0
1078,56628.68760811416
2,1, 4, 1, 0, 1,20.00,30.00,Monday
7,12.199106670406806
8,84.0
9,1.0
10,320.0
11,0.0
12,0.0
13,0.0
838,19.990964370080118
839,66.24579188908646
902,12.0
903,23.25
1051,94.3811460135236
1313,0.0
1078,56628.68760811416
2,1, 4, 1, 0, 1,30.00,40.00,Monday
7,12.279017197044253
8,78.66666666666666
9,0.8333333333333333
10,326.6666666666667
11,0.0
12,0.0
13,0.0
838,19.948717305499624
839,66.11997492071819
902,12.0
903,23.25
1051,94.3811460135236
1313,0.0
1078,56628.68760811416
2,1, 4, 1, 0, 1,40.00,50.00,Monday
7,12.3589277236817
8,73.33333333333334
9,0.6666666666666666
10,333.3333333333333
11,0.0
12,0.0
13,0.0
838,19.90958653489685
839,65.93953009777621
902,12.0
903,23.25
1051,94.3811460135236
1313,0.0
1078,56628.68760811416
2,1, 4, 1, 0, 1,50.00,60.00,Monday
7,12.438838250319147
8,68.0
9,0.5
10,340.0
11,0.0
12,0.0
13,0.0
838,19.872480982629245
839,65.71151414947785
902,12.0
903,23.25
1051,94.3811460135236
1313,0.0
1078,56628.68760811416
2,1, 4, 1, 0, 2, 0.00,10.00,Monday
7,12.458532079721412
8,68.33333333333334
9,0.6666666666666667
10,340.0
11,0.0
12,0.0
13,0.0
838,19.836676619997927
839,65.47582034047672
902,12.0
903,23.25
1051,94.3811460135236
1313,0.0
1078,56628.68760811416
2,1, 4, 1, 0, 2,10.00,20.00,Monday
7,12.478225909123674
8,68.66666666666667
9,0.8333333333333334
10,340.0
11,0.0
12,0.0
13,0.0
838,19.802137804713738
839,65.25360379177665
902,12.0
903,23.25
1051,94.3811460135236
1313,0.0
1078,56628.68760811416
2,1, 4, 1, 0, 2,20.00,30.00,Monday
7,12.497919738525937
8,69.0
9,1.0
10,340.0
11,0.0
12,0.0
13,0.0
838,19.768965200326495
839,65.0489572237004
902,12.0
903,23.25
1051,94.3811460135236
1313,0.0
1078,56628.68760811416
2,1, 4, 1, 0, 2,30.00,40.00,Monday
7,12.5176135679282
8,69.33333333333333
9,1.1666666666666667
10,340.0
11,0.0
12,0.0
13,0.0
838,19.737182088511837
839,64.85912573244855
902,12.0
903,23.25
1051,94.3811460135236
1313,0.0
1078,56628.68760811416
2,1, 4, 1, 0, 2,40.00,50.00,Monday
7,12.537307397330462
8,69.66666666666667
9,1.3333333333333333
10,340.0
11,0.0
12,0.0
13,0.0
838,19.70674931857522
839,64.68058143147844
902,12.0
903,23.25
1051,94.3811460135236
1313,0.0
1078,56628.68760811416
2,1, 4, 1, 0, 2,50.00,60.00,Monday
7,12.557001226732725
8,70.0
9,1.5
10,340.0
11,0.0
12,0.0
13,0.0
838,19.677609627700114
839,64.5109426527113
902,12.0
903,23.25
1051,94.3811460135236
1313,0.0
1078,56628.68760811416
2,1, 4, 1, 0, 3, 0.00,10.00,Monday
7,12.526515290011076
8,70.33333333333334
9,1.4166666666666667
10,346.6666666666667
11,0.0
12,0.0
13,0.0
838,19.64970546011365
839,64.34906340571557
902,12.0
903,23.25
1051,94.3811460135236
1313,0.0
1078,56628.68760811416
2,1, 4, 1, 0, 3,10.00,20.00,Monday
7,12.496029353289426
8,70.66666666666667
9,1.3333333333333333
10,353.3333333333333
11,0.0
12,0.0
13,0.0
838,19.622977112643962
839,64.19435052935317
902,12.0
903,23.25
1051,94.3811460135236
1313,0.0
1078,56628.68760811416
2,1, 4, 1, 0, 3,20.00,30.00,Monday
7,12.465543416567774
8,71.0
9,1.25
10,0.0
11,0.0
12,0.0
13,0.0
838,19.59735954875608
839,64.04643832356267
902,12.0
903,23.25
1051,94.3811460135236
1313,0.0
1078,56628.68760811416
2,1, 4, 1, 0, 3,30.00,40.00,Monday
7,12.435057479846126
8,71.33333333333334
9,1.1666666666666665
10,6.666666666666686
11,0.0
12,0.0
13,0.0
838,19.572785949506113
839,63.90504787310617
902,12.0
903,23.25
1051,94.3811460135236
1313,0.0
1078,56628.68760811416
2,1, 4, 1, 0, 3,40.00,50.00,Monday
7,12.404571543124474
8,71.66666666666666
9,1.0833333333333333
10,13.333333333333314
11,0.0
12,0.0
13,0.0
838,19.549190867276614
839,63.769944394241264
902,12.0
903,23.25
1051,94.3811460135236
1313,0.0
1078,56628.68760811416
2,1, 4, 1, 0, 3,50.00,60.00,Monday
7,12.374085606402824
8,72.0
9,1.0
10,20.0
11,0.0
12,0.0
13,0.0
838,19.52651263631888
839,63.640921293976206
902,12.0
903,23.25
1051,94.3811460135236
1313,0.0
1078,56628.68760811416
2,1, 4, 1, 0, 4, 0.00,10.00,Monday
7,12.209404428216263
8,72.5
9,0.8333333333333334
10,16.666666666666668
11,0.0
12,0.0
13,0.0
838,19.50469061316405
839,63.51839405717985
902,12.0
903,23.25
1051,94.3811460135236
1313,0.0
1078,56628.68760811416
2,1, 4, 1, 0, 4,10.00,20.00,Monday
7,12.044723250029705
8,73.0
9,0.6666666666666667
10,13.333333333333334
11,0.0
12,0.0
13,0.0
838,19.48364803678552
839,63.402480353164094
902,12.0
903,23.25
1051,94.3811460135236
1313,0.0
1078,56628.68760811416
2,1, 4, 1, 0, 4,20.00,30.00,Monday
7,11.880042071843143
8,73.5
9,0.5
10,10.0
11,0.0
12,0.0
13,0.0
838,19.463025862440897
839,63.29411247450937
902,12.0
903,23.25
1051,94.3811460135236
1313,0.0
1078,56628.68760811416
2,1, 4, 1, 0, 4,30.00,40.00,Monday
7,11.715360893656584
8,74.0
9,0.33333333333333337
10,6.666666666666668
11,0.0
12,0.0
13,0.0
838,19.44211356243195
839,63.19582304933697
902,12.0
903,23.285186767578125
1051,94.3811460135236
1313,0.0
1078,56628.68760811416
2,1, 4, 1, 0, 4,40.00,50.00,Monday
7,11.550679715470022
8,74.5
9,0.16666666666666663
10,3.333333333333332
11,0.0
12,0.0
13,0.0
838,19.420085995744852
839,63.11080541075677
902,12.0
903,23.423810958862305
1051,94.3811460135236
1313,0.0
1078,56628.68760811416
2,1, 4, 1, 0, 4,50.00,60.00,Monday
7,11.385998537283461
8,75.0
9,0.0
10,0.0
11,0.0
12,0.0
13,0.0
838,19.396432096196705
839,63.041123954483425
902,12.0
903,23.318159103393555
1051,94.3811460135236
1313,0.0
1078,56628.68760811416
2,1, 4, 1, 0, 5, 0.00,10.00,Monday
7,11.29122452746363
8,75.5
9,0.16666666666666666
10,6.666666666666666
11,0.0
12,0.0
13,0.0
838,19.371034422381165
839,62.98750698462761
902,12.0
903,23.500795364379883
1051,94.3811460135236
1313,0.0
1078,56628.68760811416
2,1, 4, 1, 0, 5,10.00,20.00,Monday
7,11.196450517643799
8,76.0
9,0.3333333333333333
10,13.333333333333332
11,0.0
12,0.0
13,0.0
838,19.344066015623397
839,62.949570374067264
902,12.0
903,23.676334381103516
1051,94.3811460135236
1313,0.0
1078,56628.68760811416
2,1, 4, 1, 0, 5,20.00,30.00,Monday
7,11.101676507823965
8,76.5
9,0.5
10,20.0
11,0.0
12,0.0
13,0.0
838,19.315831360102802
839,62.92638974998302
902,12.0
903,23.79188346862793
1051,94.3811460135236
1313,0.0
1078,56628.68760811416
2,1, 4, 1, 0, 5,30.00,40.00,Monday
7,11.006902498004134
8,77.0
9,0.6666666666666666
10,26.666666666666664
11,0.0
12,0.0
13,0.0
838,19.286654687655712
839,62.91685736347345
902,12.0
903,23.678604125976563
1051,94.3811460135236
1313,0.0
1078,56628.68760811416
2,1, 4, 1, 0, 5,40.00,50.00,Monday
7,10.912128488184301
8,77.5
9,0.8333333333333334
10,33.333333333333336
11,0.0
12,0.0
13,0.0
838,19.256832213195665
839,62.91983302140309
902,12.0
903,23.790285110473633
1051,94.3811460135236
1313,0.0
1078,56628.68760811416
2,1, 4, 1, 0, 5,50.00,60.00,Monday
7,10.81735447836447
8,78.0
9,1.0
10,40.0
11,0.0
12,0.0
13,0.0
838,19.22662014708165
839,62.93420399209201
902,12.0
903,23.44747543334961
1051,94.3811460135236
1313,0.0
1078,56628.68760811416
2,1, 4, 1, 0, 6, 0.00,10.00,Monday
7,10.745363030726182
8,78.5
9,1.0
10,41.666666666666664
11,0.0
12,0.0
13,0.0
838,19.196351610121393
839,62.958498361824624
902,12.0
903,23.64236068725586
1051,94.3811460135236
1313,0.0
1078,56628.68760811416
2,1, 4, 1, 0, 6,10.00,20.00,Monday
7,10.673371583087896
8,79.0
9,1.0
10,43.333333333333336
11,0.0
12,0.0
13,0.0
838,19.166117575768823
839,62.99210269379858
902,12.0
903,24.005687713623047
1051,94.3811460135236
1313,0.0
1078,56628.68760811416
2,1, 4, 1, 0, 6,20.00,30.00,Monday
7,10.601380135449606
8,79.5
9,1.0
10,45.0
11,0.0
12,0.0
13,0.0
838,19.13603006780155
839,63.03428366388364
902,12.0
903,23.912399291992188
1051,94.3811460135236
1313,0.0
1078,56628.68760811416
2,1, 4, 1, 0, 6,30.00,40.00,Monday
7,10.52938868781132
8,80.0
9,1.0
10,46.666666666666664
11,0.0
12,0.0
13,0.0
838,19.106225086698426
839,63.08420380141213
902,12.0
903,24.182315826416016
1051,94.3811460135236
1313,0.0
1078,56628.68760811416
2,1, 4, 1, 0, 6,40.00,50.00,Monday
7,10.457397240173032
8,80.5
9,1.0
10,48.333333333333336
11,7.333333333333332
12,0.0
13,0.0
838,19.076845749559816
839,63.14102661129416
902,12.0
903,24.294321060180664
1051,94.3811460135236
1313,0.0
1078,56628.68760811416
2,1, 4, 1, 0, 6,50.00,60.00,Monday
7,10.385405792534744
8,81.0
9,1.0
10,50.0
11,10.5
12,0.0
13,0.0
838,19.048166660079655
839,63.20331366339534
902,12.0
903,24.361955642700195
1051,94.3811460135236
1313,0.0
1078,56628.68760811416
2,1, 4, 1, 0, 7, 0.00,10.00,Monday
7,10.238877166209237
8,83.0
9,0.9166666666666667
10,50.0
11,13.66666666666667
12,0.0
13,0.0
838,19.020449908734467
839,63.107928125043976
902,12.0
903,24.376203536987305
1051,501.57665962687935
1313,0.0
1078,300945.9957761276
2,1, 4, 1, 0, 7,10.00,20.00,Monday
7,10.09234853988373
8,85.0
9,0.8333333333333334
10,50.0
11,16.833333333333336
12,0.0
13,0.0
838,18.993853665841314
839,62.92502582486683
902,12.0
903,24.969755172729492
1051,517.7040920793957
1313,0.0
1078,310622.4552476374
2,1, 4, 1, 0, 7,20.00,30.00,Monday
7,9.945819913558221
8,87.0
9,0.75
10,50.0
11,20.0
12,0.0
13,0.0
838,18.968501131610754
839,62.72847398669656
902,12.0
903,25.244766235351563
1051,533.6659447176257
1313,0.0
1078,320199.5668305754
2,1, 4, 1, 0, 7,30.00,40.00,Monday
7,9.799291287232712
8,89.0
9,0.6666666666666667
10,50.0
11,29.666666666666664
12,0.0
13,0.0
838,18.944686723871275
839,62.54927882131548
902,12.0
903,25.447265625
1051,549.3419815589434
1313,0.0
1078,329605.18893536605
2,1, 4, 1, 0, 7,40.00,50.00,Monday
7,9.652762660907205
8,91.0
9,0.5833333333333333
10,50.0
11,39.33333333333333
12,0.0
13,0.0
838,18.922494640444572
839,62.39143000146752
902,12.0
903,25.69786834716797
1051,564.5786710436538
1313,0.0
1078,338747.2026261923
2,1, 4, 1, 0, 7,50.00,60.00,Monday
7,9.506234034581697
8,93.0
9,0.5
10,50.0
11,49.0
12,0.0
13,0.0
838,18.902167611083037
839,62.248857359828506
902,12.0
903,26.056507110595703
1051,579.3596912873105
1313,0.0
1078,347615.8147723863
2,1, 4, 1, 0, 8, 0.00,10.00,Monday
7,9.625915919606781
8,92.0
9,0.8500000000000001
10,50.0
11,58.66666666666667
12,0.0
13,0.0
838,18.88399943411552
839,62.10709331897461
902,12.0
903,26.16872787475586
1051,577.6065234191473
1313,0.0
1078,346563.9140514884
2,1, 4, 1, 0, 8,10.00,20.00,Monday
7,9.745597804631865
8,91.0
9,1.2000000000000002
10,50.0
11,68.33333333333333
12,0.0
13,0.0
838,18.868273863098395
839,61.957312391855105
902,12.0
903,26.20819854736328
1051,575.0934014775204
1313,0.0
1078,345056.04088651226
2,1, 4, 1, 0, 8,20.00,30.00,Monday
7,9.86527968965695
8,90.0
9,1.55
10,50.0
11,78.0
12,0.0
13,0.0
838,18.85514513023576
839,61.796574261382645
902,12.0
903,26.004179000854492
1051,572.1360035970872
1313,0.0
1078,343281.6021582523
2,1, 4, 1, 0, 8,30.00,40.00,Monday
7,9.984961574682034
8,89.0
9,1.9000000000000001
10,50.0
11,89.0
12,0.0
13,0.0
838,18.8446530282084
839,61.6248039521596
902,12.0
903,25.889101028442383
1051,568.4771464975906
1313,0.0
1078,341086.2878985544
2,1, 4, 1, 0, 8,40.00,50.00,Monday
7,10.104643459707118
8,88.0
9,2.2500000000000004
10,50.0
11,100.0
12,0.0
13,0.0
838,18.836949909502955
839,61.442009720040325
902,12.0
903,25.874744415283203
1051,564.355985812856
1313,0.0
1078,338613.5914877136
2,1, 4, 1, 0, 8,50.00,60.00,Monday
7,10.224325344732202
8,87.0
9,2.6
10,50.0
11,111.0
12,0.0
13,0.0
838,18.832093540924234
839,61.248393299424976
902,12.0
903,25.942502975463867
1051,559.7848145224624
1313,0.0
1078,335870.88871347747
2,1, 4, 1, 0, 9, 0.00,10.00,Monday
7,10.218812318494896
8,88.16666666666667
9,2.416666666666667
10,43.333333333333336
11,122.0
12,0.0
13,20.0
838,19.74727499437793
839,58.52636196522411
902,12.0
903,26.061979293823242
1051,534.8231969486767
1313,0.0
1078,320893.918169206
2,1, 4, 1, 0, 9,10.00,20.00,Monday
7,10.21329929225759
8,89.33333333333334
9,2.2333333333333334
10,36.66666666666667
11,133.0
12,0.0
13,20.0
838,20.624561813836724
839,56.29440471257247
902,12.0
903,23.25
1051,485.4059073423681
1313,0.0
1078,291243.54440542083
2,1, 4, 1, 0, 9,20.00,30.00,Monday
7,10.207786266020282
8,90.5
9,2.05
10,30.0
11,144.0
12,0.0
13,20.0
838,21.334734698698107
839,54.84168057399762
902,12.326975822448727
903,23.249999999999993
1051,451.528183874104
1313,0.0
1078,270916.9103244625
2,1, 4, 1, 0, 9,30.00,40.00,Monday
7,10.202273239782976
8,91.66666666666667
9,1.8666666666666667
10,23.333333333333336
11,153.16666666666666
12,0.33333333333333326
13,20.0
838,22.018895160751068
839,54.185452704332704
902,12.708644866943363
903,23.25000000000001
1051,419.6670289910486
1313,0.0
1078,251800.2173946291
2,1, 4, 1, 0, 9,40.00,50.00,Monday
7,10.196760213545671
8,92.83333333333334
9,1.6833333333333331
10,16.666666666666664
11,162.33333333333331
12,0.6666666666666665
13,20.0
838,22.458083968710113
839,53.96487979541078
902,14.014731407165527
903,23.25
1051,396.7920026834414
1313,0.0
1078,238075.20161006483
2,1, 4, 1, 0, 9,50.00,60.00,Monday
7,10.191247187308363
8,94.0
9,1.5
10,10.0
11,171.5
12,1.0
13,20.0
838,22.858831943795156
839,54.26891352668058
902,12.00185489654541
903,23.25
1051,369.43570174230723
1313,0.0
1078,221661.42104538434
2,1, 4, 1, 0,10, 0.00,10.00,Monday
7,10.402892549974023
8,94.00000000000001
9,1.6
10,10.0
11,180.66666666666669
12,1.3333333333333335
13,20.0
838,23.24464929476496
839,54.14028474808025
902,13.193550109863281
903,23.25
1051,570.482906312599
1313,0.0
1078,342289.7437875594
2,1, 4, 1, 0,10,10.00,20.00,Monday
7,10.614537912639683
8,94.0
9,1.7
10,10.0
11,189.83333333333334
12,1.6666666666666667
13,20.0
838,23.249448423745722
839,54.06276135057175
902,14.944926261901855
903,23.25
1051,599.520286691292
1313,0.0
1078,359712.17201477516
2,1, 4, 1, 0,10,20.00,30.00,Monday
7,10.826183275305342
8,94.0
9,1.8
10,10.0
11,199.0
12,2.0
13,20.0
838,23.249655492735478
839,54.05771129455019
902,15.924306869506836
903,23.25
1051,507.5169618238781
1313,0.0
1078,304510.1770943268
2,1, 4, 1, 0,10,30.00,40.00,Monday
7,11.037828637971
8,94.0
9,1.9
10,10.0
11,205.5
12,2.333333333333333
13,20.0
838,23.249681653164913
839,54.30082512818092
902,14.31898307800293
903,23.25
1051,451.17532923232784
1313,0.0
1078,270705.1975393967
2,1, 4, 1, 0,10,40.00,50.00,Monday
7,11.24947400063666
8,94.0
9,2.0
10,10.0
11,212.0
12,2.6666666666666665
13,20.0
838,23.249644203858203
839,54.6867499080348
902,15.250307083129883
903,23.25
1051,275.25089334949246
1313,0.0
1078,165150.53600969547
2,1, 4, 1, 0,10,50.00,60.00,Monday
7,11.46111936330232
8,94.0
9,2.1
10,10.0
11,218.5
12,3.0
13,20.0
838,23.249662097104416
839,55.04117735987339
902,14.081104278564453
903,23.25
1051,399.095428923691
1313,0.0
1078,239457.2573542146
2,1, 4, 1, 0,11, 0.00,10.00,Monday
7,11.39341020311652
8,94.00000000000001
9,2.4333333333333336
10,35.0
11,225.0
12,3.3333333333333335
13,20.0
838,23.249634657281938
839,55.224159770008946
902,16.644866943359375
903,23.25
1051,511.2547963247831
1313,0.0
1078,306752.8777948698
2,1, 4, 1, 0,11,10.00,20.00,Monday
7,11.32570104293072
8,94.0
9,2.7666666666666666
10,60.0
11,231.5
12,3.666666666666667
13,20.0
838,23.2494567622727
839,55.247560934809435
902,18.09244155883789
903,23.25
1051,599.7691786366883
1313,0.0
1078,359861.50718201295
2,1, 4, 1, 0,11,20.00,30.00,Monday
7,11.25799188274492
8,94.0
9,3.0999999999999996
10,85.0
11,238.0
12,4.0
13,20.0
838,23.839713375029586
839,53.91511890369704
902,18.323467254638672
903,23.844877243041992
1051,272.8060960730925
1313,0.0
1078,163683.6576438555
2,1, 4, 1, 0,11,30.00,40.00,Monday
7,11.19028272255912
8,94.0
9,3.433333333333333
10,110.0
11,241.16666666666666
12,4.166666666666667
13,20.0
838,23.754572738026518
839,54.32233625532501
902,20.27130126953125
903,23.75014877319336
1051,387.9310126510773
1313,0.0
1078,232758.60759064637
2,1, 4, 1, 0,11,40.00,50.00,Monday
7,11.122573562373319
8,94.0
9,3.7666666666666666
10,135.0
11,244.33333333333331
12,4.333333333333333
13,20.0
838,23.97897802750049
839,53.89239431929279
902,20.28809356689453
903,24.003440856933594
1051,177.51966067389733
1313,0.0
1078,106511.7964043384
2,1, 4, 1, 0,11,50.00,60.00,Monday
7,11.054864402187519
8,94.0
9,4.1
10,160.0
11,247.5
12,4.5
13,20.0
838,24.489251524354685
839,52.803644282845006
902,21.295963287353516
903,24.498571395874023
1051,194.93708412864726
1313,0.0
1078,116962.25047718834
2,1, 4, 1, 0,12, 0.00,10.00,Monday
7,11.101512650255192
8,94.00000000000001
9,3.7666666666666666
10,160.0
11,250.66666666666666
12,4.666666666666667
13,16.0
838,24.189543078515808
839,53.490318829001474
902,23.25
903,24.17134666442871
1051,365.9304920382624
1313,0.0
1078,219558.29522295741
2,1, 4, 1, 0,12,10.00,20.00,Monday
7,11.148160898322864
8,94.0
9,3.4333333333333336
10,160.0
11,253.83333333333334
12,4.833333333333334
13,16.0
838,24.525825365396265
839,52.62159939549933
902,21.151905059814453
903,24.53229522705078
1051,201.09762329814518
1313,0.0
1078,120658.5739788871
2,1, 4, 1, 0,12,20.00,30.00,Monday
7,11.194809146390536
8,94.0
9,3.0999999999999996
10,160.0
11,257.0
12,5.0
13,16.0
838,24.844986475059017
839,52.00394999136181
902,22.139036178588867
903,24.850927352905273
1051,152.16989664670874
1313,0.0
1078,91301.93798802524
2,1, 4, 1, 0,12,30.00,40.00,Monday
7,11.241457394458209
8,94.0
9,2.7666666666666666
10,160.0
11,256.83333333333337
12,5.0
13,16.0
838,25.30639927714106
839,51.15047548652716
902,23.25
903,25.383014678955078
1051,94.3811460135236
1313,0.0
1078,56628.68760811416
2,1, 4, 1, 0,12,40.00,50.00,Monday
7,11.288105642525881
8,94.0
9,2.4333333333333336
10,160.0
11,256.66666666666663
12,5.0
13,16.0
838,25.51883477564224
839,51.025109713489144
902,23.25
903,25.53070640563965
1051,94.3811460135236
1313,0.0
1078,56628.68760811416
2,1, 4, 1, 0,12,50.00,60.00,Monday
7,11.334753890593554
8,94.0
9,2.1
10,160.0
11,256.5
12,5.0
13,16.0
838,25.315586135766935
839,51.609792928083394
902,23.25
903,25.307104110717773
1051,173.17781327404927
1313,0.0
1078,103906.68796442955
2,1, 4, 1, 0,13, 0.00,10.00,Monday
7,11.311782975848718
8,94.00000000000001
9,2.1833333333333336
10,160.0
11,256.3333333333333
12,5.0
13,8.0
838,25.63093122469834
839,50.80379051653417
902,23.25
903,25.640188217163086
1051,94.3811460135236
1313,0.0
1078,56628.68760811416
2,1, 4, 1, 0,13,10.00,20.00,Monday
7,11.288812061103885
8,94.0
9,2.2666666666666666
10,160.0
11,256.1666666666667
12,5.0
13,8.0
838,25.88285609642618
839,50.16493895235617
902,23.172164916992188
903,25.96099853515625
1051,94.3811460135236
1313,0.0
1078,56628.68760811416
2,1, 4, 1, 0,13,20.00,30.00,Monday
7,11.26584114635905
8,94.0
9,2.35
10,160.0
11,256.0
12,5.0
13,8.0
838,26.10390656912945
839,49.742132391150776
902,23.25
903,26.109161376953125
1051,94.3811460135236
1313,0.0
1078,56628.68760811416
2,1, 4, 1, 0,13,30.00,40.00,Monday
7,11.242870231614214
8,94.0
9,2.4333333333333336
10,160.0
11,252.33333333333334
12,4.833333333333334
13,8.0
838,26.204468467135726
839,49.670493409104395
902,23.25
903,26.209003448486328
1051,94.3811460135236
1313,0.0
1078,56628.68760811416
2,1, 4, 1, 0,13,40.00,50.00,Monday
7,11.21989931686938
8,94.0
9,2.516666666666667
10,160.0
11,248.66666666666669
12,4.666666666666667
13,8.0
838,25.59159699737653
839,50.86328534389061
902,23.25
903,25.558534622192383
1051,220.06699230330153
1313,0.0
1078,132040.1953819809
2,1, 4, 1, 0,13,50.00,60.00,Monday
7,11.196928402124545
8,94.0
9,2.6
10,160.0
11,245.0
12,4.5
13,8.0
838,25.830845264082463
839,50.02365420672218
902,23.25
903,26.209365844726563
1051,94.3811460135236
1313,0.0
1078,56628.68760811416
2,1, 4, 1, 0,14, 0.00,10.00,Monday
7,11.152883645280404
8,94.00000000000001
9,2.516666666666667
10,146.66666666666666
11,241.33333333333334
12,4.333333333333333
13,16.0
838,25.684042508600214
839,50.39238176809374
902,23.25
903,25.667125701904297
1051,170.23402225607308
1313,0.0
1078,102140.41335364385
2,1, 4, 1, 0,14,10.00,20.00,Monday
7,11.108838888436262
8,94.0
9,2.4333333333333336
10,133.33333333333334
11,237.66666666666666
12,4.166666666666667
13,16.0
838,25.601377468373702
839,50.749910877953894
902,23.25
903,25.59276008605957
1051,134.5717767438685
1313,0.0
1078,80743.0660463211
2,1, 4, 1, 0,14,20.00,30.00,Monday
7,11.06479413159212
8,94.0
9,2.35
10,120.0
11,234.0
12,4.0
13,16.0
838,25.746380718408926
839,50.5865068068328
902,23.25
903,25.76134490966797
1051,94.3811460135236
1313,0.0
1078,56628.68760811416
2,1, 4, 1, 0,14,30.00,40.00,Monday
7,11.020749374747977
8,94.0
9,2.2666666666666666
10,106.66666666666667
11,227.16666666666666
12,3.666666666666667
13,16.0
838,25.804494457577224
839,50.571028622028955
902,23.25
903,25.812246322631836
1051,120.14821830373941
1313,0.0
1078,72088.93098224365
2,1, 4, 1, 0,14,40.00,50.00,Monday
7,10.976704617903835
8,94.0
9,2.1833333333333336
10,93.33333333333333
11,220.33333333333334
12,3.3333333333333335
13,16.0
838,25.57292465247221
839,51.06135444536236
902,23.25
903,25.539560317993164
1051,228.04115247601638
1313,0.0
1078,136824.69148560983
2,1, 4, 1, 0,14,50.00,60.00,Monday
7,10.932659861059692
8,94.0
9,2.1
10,80.0
11,213.5
12,3.0
13,16.0
838,25.32405269452121
839,51.4358226589858
902,23.25
903,25.287763595581055
1051,251.43220590861276
1313,0.0
1078,150859.32354516766
2,1, 4, 1, 0,15, 0.00,10.00,Monday
7,10.861459242880148
8,94.00000000000001
9,2.0
10,80.0
11,206.66666666666669
12,2.6666666666666665
13,20.0
838,25.10663461825394
839,51.80722488744385
902,23.25
903,25.07050132751465
1051,349.0435535338298
1313,0.0
1078,209426.1321202979
2,1, 4, 1, 0,15,10.00,20.00,Monday
7,10.790258624700602
8,94.0
9,1.9000000000000001
10,80.0
11,199.83333333333334
12,2.333333333333333
13,20.0
838,25.313954045169115
839,51.36164849226612
902,23.25
903,25.33346176147461
1051,113.0571884590985
1313,0.0
1078,67834.3130754591
2,1, 4, 1, 0,15,20.00,30.00,Monday
7,10.719058006521054
8,94.0
9,1.8
10,80.0
11,193.0
12,2.0
13,20.0
838,25.42041835840367
839,51.17697592612696
902,23.25
903,25.43732452392578
1051,212.60263177500605
1313,0.0
1078,127561.57906500362
2,1, 4, 1, 0,15,30.00,40.00,Monday
7,10.647857388341508
8,94.0
9,1.7000000000000002
10,80.0
11,183.5
12,1.6666666666666667
13,20.0
838,25.2334661463266
839,51.51026313201512
902,23.25
903,25.202220916748047
1051,326.40088725472015
1313,0.0
1078,195840.5323528321
2,1, 4, 1, 0,15,40.00,50.00,Monday
7,10.576656770161962
8,94.0
9,1.5999999999999999
10,80.0
11,174.0
12,1.3333333333333335
13,20.0
838,25.363519281271248
839,51.15308074311099
902,22.79193115234375
903,25.37639045715332
1051,109.00066482904423
1313,0.0
1078,65400.39889742654
2,1, 4, 1, 0,15,50.00,60.00,Monday
7,10.505456151982417
8,94.0
9,1.5
10,80.0
11,164.5
12,1.0
13,20.0
838,24.98806442977157
839,51.757885584809245
902,23.25
903,24.96147346496582
1051,419.316371817843
1313,0.0
1078,251589.8230907058
2,1, 4, 1, 0,16, 0.00,10.00,Monday
7,10.70837688437325
8,94.00000000000001
9,1.7666666666666666
10,66.66666666666669
11,155.0
12,0.6666666666666665
13,20.0
838,24.699751046679033
839,52.04443811194127
902,20.5695858001709
903,24.657827377319336
1051,424.3537082292104
1313,0.0
1078,254612.22493752622
2,1, 4, 1, 0,16,10.00,20.00,Monday
7,10.911297616764081
8,94.0
9,2.033333333333333
10,53.333333333333314
11,145.5
12,0.33333333333333326
13,20.0
838,24.43838239283568
839,52.21757600008159
902,18.816160202026367
903,24.390512466430664
1051,587.0344681575419
1313,0.0
1078,352220.68089452514
2,1, 4, 1, 0,16,20.00,30.00,Monday
7,11.114218349154914
8,94.0
9,2.3
10,40.0
11,136.0
12,0.0
13,20.0
838,23.977420404416932
839,52.70934401826386
902,18.043001174926758
903,23.94580841064453
1051,648.9960809134269
1313,0.0
1078,389397.64854805614
2,1, 4, 1, 0,16,30.00,40.00,Monday
7,11.317139081545745
8,94.0
9,2.5666666666666664
10,26.666666666666686
11,125.0
12,0.0
13,20.0
838,23.28787583458062
839,53.49525492842248
902,15.533498764038098
903,23.250091552734393
1051,804.1328231211593
1313,0.0
1078,482479.69387269515
2,1, 4, 1, 0,16,40.00,50.00,Monday
7,11.520059813936577
8,94.0
9,2.8333333333333335
10,13.333333333333314
11,114.0
12,0.0
13,20.0
838,23.250929445182702
839,52.817664412723744
902,14.487051010131836
903,23.25
1051,759.3090212281496
1313,0.0
1078,455585.4127368898
2,1, 4, 1, 0,16,50.00,60.00,Monday
7,11.72298054632741
8,94.0
9,3.1
10,0.0
11,103.0
12,0.0
13,20.0
838,23.25094077001838
839,52.4018835449396
902,14.952669143676758
903,23.25
1051,774.1768185607491
1313,0.0
1078,464506.0911364495
2,1, 4, 1, 0,17, 0.00,10.00,Monday
7,11.66806136934215
8,94.00000000000001
9,3.0166666666666666
10,0.0
11,92.0
12,0.0
13,20.0
838,23.249630000294275
839,52.26400555248997
902,13.36174488067627
903,23.25
1051,701.3069120870161
1313,0.0
1078,420784.14725220966
2,1, 4, 1, 0,17,10.00,20.00,Monday
7,11.613142192356891
8,94.0
9,2.9333333333333336
10,0.0
11,81.0
12,0.0
13,20.0
838,23.2494180221447
839,52.18811085166249
902,13.187628746032715
903,23.25
1051,667.1174481561998
1313,0.0
1078,400270.46889371984
2,1, 4, 1, 0,17,20.00,30.00,Monday
7,11.558223015371631
8,94.0
9,2.85
10,0.0
11,70.0
12,0.0
13,20.0
838,23.249388423601534
839,52.09960138896652
902,13.220120429992676
903,23.25
1051,626.355006189314
1313,0.0
1078,375813.0037135884
2,1, 4, 1, 0,17,30.00,40.00,Monday
7,11.50330383838637
8,94.0
9,2.7666666666666666
10,0.0
11,60.833333333333336
12,0.0
13,20.0
838,23.249391896854924
839,52.01310938399886
902,12.581031799316406
903,23.25
1051,572.1814331675583
1313,0.0
1078,343308.859900535
2,1, 4, 1, 0,17,40.00,50.00,Monday
7,11.448384661401112
8,94.0
9,2.6833333333333336
10,0.0
11,51.66666666666667
12,0.0
13,20.0
838,23.24940456339521
839,51.95064198589105
902,12.69961166381836
903,23.25
1051,529.1226139792715
1313,0.0
1078,317473.5683875629
2,1, 4, 1, 0,17,50.00,60.00,Monday
7,11.393465484415852
8,94.0
9,2.6
10,0.0
11,42.5
12,0.0
13,20.0
838,23.249415227970637
839,51.914339285759844
902,12.890009880065918
903,23.25
1051,494.8905019447893
1313,0.0
1078,296934.3011668736
2,1, 4, 1, 0,18, 0.00,10.00,Monday
7,11.427405477894071
8,94.00000000000001
9,2.6833333333333336
10,351.6666666666667
11,33.33333333333333
12,0.0
13,20.0
838,23.24943630024717
839,51.92276274898432
902,12.743854522705078
903,23.25
1051,465.3117288558217
1313,0.0
1078,279187.037313493
2,1, 4, 1, 0,18,10.00,20.00,Monday
7,11.46134547137229
8,94.0
9,2.7666666666666666
10,343.3333333333333
11,24.166666666666664
12,0.0
13,20.0
838,23.249453559312308
839,51.97440637767671
902,12.025967597961426
903,23.25
1051,439.25475458876355
1313,0.0
1078,263552.85275325814
2,1, 4, 1, 0,18,20.00,30.00,Monday
7,11.49528546485051
8,94.0
9,2.85
10,335.0
11,15.0
12,0.0
13,20.0
838,23.249465499721136
839,52.057309810566835
902,12.0
903,23.25
1051,418.64330825321866
1313,0.0
1078,251185.9849519312
2,1, 4, 1, 0,18,30.00,40.00,Monday
7,11.529225458328728
8,94.0
9,2.933333333333333
10,326.6666666666667
11,12.5
12,0.0
13,20.0
838,23.249474032468438
839,52.16115272596621
902,12.0
903,23.25
1051,405.8688613612617
1313,0.0
1078,243521.316816757
2,1, 4, 1, 0,18,40.00,50.00,Monday
7,11.563165451806947
8,94.0
9,3.0166666666666666
10,318.3333333333333
11,10.000000000000002
12,0.0
13,20.0
838,23.249480846880093
839,52.281049678577084
902,12.0
903,23.25
1051,393.8948115189282
1313,0.0
1078,236336.8869113569
2,1, 4, 1, 0,18,50.00,60.00,Monday
7,11.597105445285166
8,94.0
9,3.1
10,310.0
11,7.5
12,0.0
13,20.0
838,23.249486203658062
839,52.413767313818646
902,12.0
903,23.25
1051,384.11491589562297
1313,0.0
1078,230468.9495373738
2,1, 4, 1, 0,19, 0.00,10.00,Monday
7,11.554863074346821
8,94.00000000000001
9,2.9333333333333336
10,320.0
11,0.0
12,0.0
13,10.0
838,23.249687067854644
839,52.468354793089475
902,12.0
903,23.25
1051,94.3811460135236
1313,0.0
1078,56628.68760811416
2,1, 4, 1, 0,19,10.00,20.00,Monday
7,11.512620703408476
8,94.0
9,2.7666666666666666
10,330.0
11,0.0
12,0.0
13,10.0
838,23.249729766988626
839,52.51014168405212
902,12.0
903,23.25
1051,94.3811460135236
1313,0.0
1078,56628.68760811416
2,1, 4, 1, 0,19,20.00,30.00,Monday
7,11.47037833247013
8,94.0
9,2.6
10,340.0
11,0.0
12,0.0
13,10.0
838,23.24974255314112
839,52.57519565631059
902,12.0
903,23.25
1051,94.3811460135236
1313,0.0
1078,56628.68760811416
2,1, 4, 1, 0,19,30.00,40.00,Monday
7,11.428135961531785
8,94.0
9,2.4333333333333336
10,350.0
11,0.0
12,0.0
13,10.0
838,23.249750170458867
839,52.66858472164648
902,12.0
903,23.25
1051,94.3811460135236
1313,0.0
1078,56628.68760811416
2,1, 4, 1, 0,19,40.00,50.00,Monday