Program Version,EnergyPlus, Version 24.1.0-9d7789a3ac, YMD=2025.08.14 13:25
1,5,Environment Title[],Latitude[deg],Longitude[deg],Time Zone[],Elevation[m]
2,8,Day of Simulation[],Month[],Day of Month[],DST Indicator[1=yes 0=no],Hour[],StartMinute[],EndMinute[],DayType
3,5,Cumulative Day of Simulation[],Month[],Day of Month[],DST Indicator[1=yes 0=no],DayType  ! When Daily Report Variables Requested
4,2,Cumulative Days of Simulation[],Month[]  ! When Monthly Report Variables Requested
5,1,Cumulative Days of Simulation[] ! When Run Period Report Variables Requested
6,1,Calendar Year of Simulation[] ! When Annual Report Variables Requested
7,1,Environment,Site Outdoor Air Drybulb Temperature [C] !TimeStep
8,1,Environment,Site Outdoor Air Relative Humidity [%] !TimeStep
9,1,Environment,Site Wind Speed [m/s] !TimeStep
10,1,Environment,Site Wind Direction [deg] !TimeStep
11,1,Environment,Site Diffuse Solar Radiation Rate per Area [W/m2] !TimeStep
12,1,Environment,Site Direct Solar Radiation Rate per Area [W/m2] !TimeStep
13,1,SPACE5-1,Zone People Occupant Count [] !TimeStep
838,1,SPACE5-1,Zone Air Temperature [C] !TimeStep
839,1,SPACE5-1,Zone Air Relative Humidity [%] !TimeStep
902,1,SPACE5-1,Zone Thermostat Heating Setpoint Temperature [C] !TimeStep
903,1,SPACE5-1,Zone Thermostat Cooling Setpoint Temperature [C] !TimeStep
1051,1,Whole Building,Facility Total HVAC Electricity Demand Rate [W] !TimeStep
1313,1,Site,Environmental Impact Total CO2 Emissions Carbon Equivalent Mass [kg] !TimeStep
1078,1,Electricity:HVAC [J] !TimeStep
End of Data Dictionary
1,RUNPERIOD 1,  35.25, 136.93,   9.00,  17.00
2,1, 7, 1, 0, 1, 0.00,10.00,Monday
7,24.347278260229952
8,88.0
9,2.3333333333333335
10,195.0
11,0.0
12,0.0
13,0.0
838,21.520371227272545
839,52.8909694377232
902,12.8
903,40.0
1051,500.13449576913416
1313,0.0
1078,300080.6974614805
2,1, 7, 1, 0, 1,10.00,20.00,Monday
7,24.24855612331312
8,87.0
9,2.066666666666667
10,210.0
11,0.0
12,0.0
13,0.0
838,22.04975450726159
839,50.921014762419645
902,23.25
903,27.37017250061035
1051,6745.63549377793
1313,0.0
1078,4047381.296266758
2,1, 7, 1, 0, 1,20.00,30.00,Monday
7,24.149833986396285
8,86.0
9,1.8
10,225.0
11,0.0
12,0.0
13,0.0
838,22.550426099567783
839,49.10208356954842
902,23.249999999999993
903,26.029518127441396
1051,4723.964266538374
1313,0.0
1078,2834378.5599230253
2,1, 7, 1, 0, 1,30.00,40.00,Monday
7,24.051111849479454
8,85.0
9,1.5333333333333334
10,240.0
11,0.0
12,0.0
13,0.0
838,22.92005483437923
839,47.70380877509395
902,23.250000000000007
903,26.478292465209968
1051,4509.761400773421
1313,0.0
1078,2705856.8404640513
2,1, 7, 1, 0, 1,40.00,50.00,Monday
7,23.95238971256262
8,84.0
9,1.2666666666666666
10,255.0
11,0.0
12,0.0
13,0.0
838,23.19357508863794
839,46.52408188264221
902,23.25
903,26.4675350189209
1051,4431.912965424377
1313,0.0
1078,2659147.779254626
2,1, 7, 1, 0, 1,50.00,60.00,Monday
7,23.853667575645787
8,83.0
9,1.0
10,270.0
11,0.0
12,0.0
13,0.0
838,23.248802825717352
839,45.92952601543651
902,23.25
903,26.49639892578125
1051,3830.4046378718185
1313,0.0
1078,2298242.782723091
2,1, 7, 1, 0, 2, 0.00,10.00,Monday
7,23.965490888683487
8,83.5
9,1.0
10,295.0
11,0.0
12,0.0
13,0.0
838,23.250448493517307
839,45.4772837671552
902,23.25
903,26.812952041625977
1051,3708.5650624302107
1313,0.0
1078,2225139.0374581264
2,1, 7, 1, 0, 2,10.00,20.00,Monday
7,24.077314201721187
8,84.0
9,1.0
10,320.0
11,0.0
12,0.0
13,0.0
838,23.250454003393056
839,45.03766092218271
902,23.25
903,27.053409576416016
1051,3530.0846574674756
1313,0.0
1078,2118050.7944804854
2,1, 7, 1, 0, 2,20.00,30.00,Monday
7,24.189137514758883
8,84.5
9,1.0
10,345.0
11,0.0
12,0.0
13,0.0
838,23.250419079129852
839,44.60926701447019
902,23.25
903,27.16647720336914
1051,3386.0082180175536
1313,0.0
1078,2031604.930810532
2,1, 7, 1, 0, 2,30.00,40.00,Monday
7,24.30096082779658
8,85.0
9,1.0
10,10.0
11,0.0
12,0.0
13,0.0
838,23.25039621195836
839,44.19015972750858
902,23.25
903,27.261194229125977
1051,3279.9645292361815
1313,0.0
1078,1967978.7175417088
2,1, 7, 1, 0, 2,40.00,50.00,Monday
7,24.41278414083428
8,85.5
9,1.0
10,35.0
11,0.0
12,0.0
13,0.0
838,23.250378754835687
839,43.77814487067942
902,23.25
903,26.481109619140625
1051,3193.874800221713
1313,0.0
1078,1916324.880133028
2,1, 7, 1, 0, 2,50.00,60.00,Monday
7,24.52460745387198
8,86.0
9,1.0
10,60.0
11,0.0
12,0.0
13,0.0
838,23.250364736430807
839,43.3719170382097
902,23.25
903,26.739957809448242
1051,3122.7101650615923
1313,0.0
1078,1873626.0990369553
2,1, 7, 1, 0, 3, 0.00,10.00,Monday
7,24.60398054500296
8,86.33333333333334
9,1.0
10,73.33333333333333
11,0.0
12,0.0
13,0.0
838,23.250353205061963
839,42.970861035505784
902,23.25
903,26.822139739990234
1051,3066.139671217565
1313,0.0
1078,1839683.802730539
2,1, 7, 1, 0, 3,10.00,20.00,Monday
7,24.683353636133937
8,86.66666666666667
9,1.0
10,86.66666666666666
11,0.0
12,0.0
13,0.0
838,23.25034366298818
839,42.5747895989493
902,23.25
903,27.014999389648438
1051,3020.8084669762356
1313,0.0
1078,1812485.0801857414
2,1, 7, 1, 0, 3,20.00,30.00,Monday
7,24.762726727264912
8,87.0
9,1.0
10,100.0
11,0.0
12,0.0
13,0.0
838,23.250335106647068
839,42.18367127939561
902,23.25
903,27.062957763671875
1051,2980.5590277609526
1313,0.0
1078,1788335.4166565717
2,1, 7, 1, 0, 3,30.00,40.00,Monday
7,24.84209981839589
8,87.33333333333334
9,1.0
10,113.33333333333333
11,0.0
12,0.0
13,0.0
838,23.250327484715548
839,41.79747563831541
902,23.25
903,27.131397247314453
1051,2945.164971548772
1313,0.0
1078,1767098.9829292633
2,1, 7, 1, 0, 3,40.00,50.00,Monday
7,24.92147290952687
8,87.66666666666667
9,1.0
10,126.66666666666667
11,0.0
12,0.0
13,0.0
838,23.250320621862
839,41.416136874530146
902,23.25
903,27.194252014160156
1051,2913.5743204198507
1313,0.0
1078,1748144.5922519104
2,1, 7, 1, 0, 3,50.00,60.00,Monday
7,25.000846000657848
8,88.0
9,1.0
10,140.0
11,0.0
12,0.0
13,0.0
838,23.250314355828472
839,41.03956906429848
902,23.25
903,27.25539779663086
1051,2884.886621349592
1313,0.0
1078,1730931.9728097552
2,1, 7, 1, 0, 4, 0.00,10.00,Monday
7,25.01271747698443
8,88.33333333333334
9,0.9166666666666667
10,140.0
11,0.0
12,0.0
13,0.0
838,23.250308690724175
839,40.66758354200977
902,23.25
903,27.313884735107422
1051,2865.8685344554365
1313,0.0
1078,1719521.1206732618
2,1, 7, 1, 0, 4,10.00,20.00,Monday
7,25.02458895331101
8,88.66666666666667
9,0.8333333333333334
10,140.0
11,0.0
12,0.0
13,0.0
838,23.250303405482736
839,40.30003878863626
902,23.25
903,27.47943878173828
1051,2849.693748445107
1313,0.0
1078,1709816.2490670641
2,1, 7, 1, 0, 4,20.00,30.00,Monday
7,25.036460429637593
8,89.0
9,0.75
10,140.0
11,0.0
12,0.0
13,0.0
838,23.250298426238107
839,39.936847550137706
902,23.25
903,27.488540649414063
1051,2835.460043908924
1313,0.0
1078,1701276.0263453545
2,1, 7, 1, 0, 4,30.00,40.00,Monday
7,25.048331905964176
8,89.33333333333334
9,0.6666666666666667
10,140.0
11,0.0
12,0.0
13,0.0
838,23.250293699217377
839,39.57793697349204
902,23.25
903,27.52243423461914
1051,2822.73977032864
1313,0.0
1078,1693643.862197184
2,1, 7, 1, 0, 4,40.00,50.00,Monday
7,25.060203382290755
8,89.66666666666666
9,0.5833333333333333
10,140.0
11,0.0
12,0.0
13,0.0
838,23.25028918281716
839,39.22324501900331
902,23.25
903,27.550010681152344
1051,2811.252512749326
1313,0.0
1078,1686751.5076495956
2,1, 7, 1, 0, 4,50.00,60.00,Monday
7,25.072074858617338
8,90.0
9,0.5
10,140.0
11,0.0
12,0.0
13,0.0
838,23.250284886432983
839,38.872684277059975
902,23.25
903,27.576929092407227
1051,2801.2295512154797
1313,0.0
1078,1680737.7307292877
2,1, 7, 1, 0, 5, 0.00,10.00,Monday
7,25.097217632980485
8,90.0
9,0.5833333333333334
10,125.0
11,0.0
12,0.0
13,0.0
838,23.250280847726962
839,38.52609532219301
902,23.25
903,27.602218627929688
1051,2790.464919128249
1313,0.0
1078,1674278.9514769495
2,1, 7, 1, 0, 5,10.00,20.00,Monday
7,25.122360407343635
8,90.0
9,0.6666666666666667
10,110.0
11,0.0
12,0.0
13,0.0
838,23.250276926449324
839,38.18337979018989
902,23.25
903,27.657772064208984
1051,2779.772996892209
1313,0.0
1078,1667863.7981353253
2,1, 7, 1, 0, 5,20.00,30.00,Monday
7,25.14750318170678
8,90.0
9,0.75
10,95.0
11,0.0
12,0.0
13,0.0
838,23.250273098717212
839,37.84448390410892
902,23.25
903,27.589736938476563
1051,2769.3893435739446
1313,0.0
1078,1661633.6061443668
2,1, 7, 1, 0, 5,30.00,40.00,Monday
7,25.172645956069932
8,90.0
9,0.8333333333333333
10,80.0
11,0.0
12,0.0
13,0.0
838,23.25026935274397
839,37.50937285191185
902,23.25
903,27.542417526245117
1051,2759.3340100673217
1313,0.0
1078,1655600.406040393
2,1, 7, 1, 0, 5,40.00,50.00,Monday
7,25.197788730433082
8,90.0
9,0.9166666666666667
10,65.0
11,9.33333333333333
12,0.0
13,0.0
838,23.250265545385886
839,37.1780141913426
902,23.25
903,27.487653732299805
1051,2687.9023967639714
1313,0.0
1078,1612741.4380583828
2,1, 7, 1, 0, 5,50.00,60.00,Monday
7,25.22293150479623
8,90.0
9,1.0
10,50.0
11,13.5
12,0.0
13,0.0
838,23.250261659169404
839,36.850337226757965
902,23.25
903,27.415401458740234
1051,2635.651448836343
1313,0.0
1078,1581390.869301806
2,1, 7, 1, 0, 6, 0.00,10.00,Monday
7,25.200361618302495
8,90.16666666666667
9,1.0
10,48.333333333333336
11,17.666666666666668
12,0.0
13,0.0
838,23.2502576150809
839,36.52627260606962
902,23.25
903,27.353797912597656
1051,2587.5533285559613
1313,0.0
1078,1552531.9971335768
2,1, 7, 1, 0, 6,10.00,20.00,Monday
7,25.17779173180876
8,90.33333333333334
9,1.0
10,46.666666666666664
11,21.833333333333336
12,0.0
13,0.0
838,23.25025346027233
839,36.20576594299843
902,23.25
903,27.484670639038086
1051,2537.7784598246008
1313,0.0
1078,1522667.0758947604
2,1, 7, 1, 0, 6,20.00,30.00,Monday
7,25.155221845315026
8,90.5
9,1.0
10,45.0
11,26.0
12,0.0
13,0.0
838,23.250249244557168
839,35.88875889593929
902,23.25
903,27.454484939575195
1051,2486.2120258636332
1313,0.0
1078,1491727.2155181798
2,1, 7, 1, 0, 6,30.00,40.00,Monday
7,25.132651958821288
8,90.66666666666667
9,1.0
10,43.333333333333336
11,39.33333333333333
12,0.0
13,0.0
838,23.25024485953402
839,35.575192395530074
902,23.25
903,27.457504272460938
1051,2369.9772769655706
1313,0.0
1078,1421986.3661793424
2,1, 7, 1, 0, 6,40.00,50.00,Monday
7,25.110082072327554
8,90.83333333333334
9,1.0
10,41.666666666666664
11,52.666666666666664
12,0.0
13,0.0
838,23.250240134411865
839,35.26495242711552
902,23.25
903,27.435989379882813
1051,2256.510331376278
1313,0.0
1078,1353906.1988257668
2,1, 7, 1, 0, 6,50.00,60.00,Monday
7,25.08751218583382
8,91.0
9,1.0
10,40.0
11,66.0
12,0.0
13,0.0
838,23.250235045789193
839,34.95784922209987
902,23.25
903,27.41653823852539
1051,2120.0305657796816
1313,0.0
1078,1272018.339467809
2,1, 7, 1, 0, 7, 0.00,10.00,Monday
7,25.24063371870004
8,89.83333333333334
9,1.0
10,58.33333333333333
11,79.33333333333334
12,0.0
13,0.0
838,23.24915388976778
839,35.342825844327976
902,23.25
903,27.39824867248535
1051,1680.8117512781628
1313,0.0
1078,1008487.0507668976
2,1, 7, 1, 0, 7,10.00,20.00,Monday
7,25.393755251566255
8,88.66666666666667
9,1.0
10,76.66666666666666
11,92.66666666666667
12,0.0
13,0.0
838,23.249189463826795
839,36.117259519918335
902,23.25
903,27.65013885498047
1051,1543.5274141104128
1313,0.0
1078,926116.4484662476
2,1, 7, 1, 0, 7,20.00,30.00,Monday
7,25.54687678443247
8,87.5
9,1.0
10,95.0
11,106.0
12,0.0
13,0.0
838,23.24927198346588
839,36.9726008109811
902,23.25
903,27.64508056640625
1051,1388.8710485251513
1313,0.0
1078,833322.6291150908
2,1, 7, 1, 0, 7,30.00,40.00,Monday
7,25.699998317298686
8,86.33333333333334
9,1.0
10,113.33333333333333
11,119.16666666666667
12,1.1666666666666665
13,0.0
838,23.24934910120034
839,37.77277347537618
902,23.25
903,27.694272994995117
1051,1315.7023835389125
1313,0.0
1078,789421.4301233476
2,1, 7, 1, 0, 7,40.00,50.00,Monday
7,25.853119850164905
8,85.16666666666666
9,1.0
10,131.66666666666669
11,132.33333333333331
12,2.333333333333333
13,0.0
838,23.249414241168008
839,38.49599657239368
902,23.25
903,27.70819854736328
1051,1261.294206498673
1313,0.0
1078,756776.5238992037
2,1, 7, 1, 0, 7,50.00,60.00,Monday
7,26.00624138303112
8,84.0
9,1.0
10,150.0
11,145.5
12,3.5
13,0.0
838,23.249468595555896
839,39.15939113185963
902,23.25
903,27.717601776123047
1051,1203.8164784570074
1313,0.0
1078,722289.8870742044
2,1, 7, 1, 0, 8, 0.00,10.00,Monday
7,26.220021732675235
8,83.16666666666667
9,0.9166666666666667
10,150.0
11,158.66666666666669
12,4.666666666666667
13,0.0
838,23.249507663212995
839,39.78792723977728
902,23.25
903,27.716632843017578
1051,1147.952398599544
1313,0.0
1078,688771.4391597265
2,1, 7, 1, 0, 8,10.00,20.00,Monday
7,26.43380208231935
8,82.33333333333334
9,0.8333333333333334
10,150.0
11,171.83333333333334
12,5.833333333333334
13,0.0
838,23.249544796842574
839,40.39577153558061
902,23.25
903,27.80438804626465
1051,1131.1177931223717
1313,0.0
1078,678670.675873423
2,1, 7, 1, 0, 8,20.00,30.00,Monday
7,26.647582431963457
8,81.5
9,0.75
10,150.0
11,185.0
12,7.0
13,0.0
838,23.24958212401636
839,40.98788728063094
902,23.25
903,27.71634292602539
1051,1111.959517741905
1313,0.0
1078,667175.7106451431
2,1, 7, 1, 0, 8,30.00,40.00,Monday
7,26.861362781607575
8,80.66666666666667
9,0.6666666666666667
10,150.0
11,200.5
12,8.666666666666666
13,0.0
838,23.249620599867377
839,41.564804613908194
902,23.25
903,27.663572311401367
1051,1090.410867960977
1313,0.0
1078,654246.5207765861
2,1, 7, 1, 0, 8,40.00,50.00,Monday
7,27.075143131251682
8,79.83333333333334
9,0.5833333333333333
10,150.0
11,216.0
12,10.333333333333332
13,0.0
838,23.249660475088607
839,42.125904221421564
902,23.25
903,27.581253051757813
1051,1065.9125315607241
1313,0.0
1078,639547.5189364345
2,1, 7, 1, 0, 8,50.00,60.00,Monday
7,27.288923480895797
8,79.0
9,0.5
10,150.0
11,231.5
12,12.0
13,0.0
838,23.249701694766472
839,42.67048568162321
902,23.25
903,27.496728897094727
1051,1038.5109235159175
1313,0.0
1078,623106.5541095505
2,1, 7, 1, 0, 9, 0.00,10.00,Monday
7,27.313564012500656
8,78.16666666666667
9,0.6666666666666667
10,173.33333333333334
11,247.0
12,13.666666666666668
13,20.0
838,23.974260082038768
839,42.205196142007935
902,23.25
903,27.405254364013672
1051,542.7149599479482
1313,0.0
1078,325628.9759687689
2,1, 7, 1, 0, 9,10.00,20.00,Monday
7,27.338204544105515
8,77.33333333333334
9,0.8333333333333334
10,196.66666666666666
11,262.5
12,15.333333333333334
13,20.0
838,24.679634281492746
839,41.908441989592504
902,23.25
903,27.090383529663086
1051,558.4194954849146
1313,0.0
1078,335051.69729094877
2,1, 7, 1, 0, 9,20.00,30.00,Monday
7,27.362845075710368
8,76.5
9,1.0
10,220.0
11,278.0
12,17.0
13,20.0
838,25.26615268826884
839,41.89855003995321
902,20.423089981079094
903,26.413200378417955
1051,906.092116043729
1313,0.0
1078,543655.2696262376
2,1, 7, 1, 0, 9,30.00,40.00,Monday
7,27.387485607315227
8,75.66666666666666
9,1.1666666666666667
10,243.33333333333331
11,284.0
12,17.5
13,20.0
838,25.75960541026979
839,42.35796570788176
902,18.04192543029786
903,25.927522659301765
1051,1572.4373181308292
1313,0.0
1078,943462.3908784972
2,1, 7, 1, 0, 9,40.00,50.00,Monday
7,27.412126138920087
8,74.83333333333334
9,1.3333333333333333
10,266.6666666666667
11,290.0
12,18.0
13,20.0
838,25.709915439381565
839,45.39368792162452
902,16.09708023071289
903,25.692644119262695
1051,2102.6451556177503
1313,0.0
1078,1261587.0933706502
2,1, 7, 1, 0, 9,50.00,60.00,Monday
7,27.436766670524943
8,74.0
9,1.5
10,290.0
11,296.0
12,18.5
13,20.0
838,25.75490891056656
839,48.23202558159452
902,16.48485565185547
903,25.757535934448242
1051,1973.5883756368755
1313,0.0
1078,1184153.0253821253
2,1, 7, 1, 0,10, 0.00,10.00,Monday
7,27.533652128229004
8,74.0
9,1.5
10,290.0
11,302.0
12,19.0
13,20.0
838,25.708982257169595
839,51.85461413191994
902,16.108537673950195
903,25.700773239135742
1051,2885.184353860912
1313,0.0
1078,1731110.6123165472
2,1, 7, 1, 0,10,10.00,20.00,Monday
7,27.630537585933062
8,74.0
9,1.5
10,290.0
11,308.0
12,19.5
13,20.0
838,25.658607570082737
839,55.414179942419715
902,16.37084197998047
903,25.65009117126465
1051,3042.5142748206426
1313,0.0
1078,1825508.5648923856
2,1, 7, 1, 0,10,20.00,30.00,Monday
7,27.72742304363712
8,74.0
9,1.5
10,290.0
11,314.0
12,20.0
13,20.0
838,25.641966325494668
839,58.32461690133196
902,16.549537658691406
903,25.63880157470703
1051,3385.8158317178045
1313,0.0
1078,2031489.4990306827
2,1, 7, 1, 0,10,30.00,40.00,Monday
7,27.82430850134118
8,74.0
9,1.5
10,290.0
11,323.3333333333333
12,22.666666666666664
13,20.0
838,25.606351201563673
839,60.50223158909751
902,16.737627029418945
903,25.601655960083008
1051,4096.094487453823
1313,0.0
1078,2457656.6924722935
2,1, 7, 1, 0,10,40.00,50.00,Monday
7,27.921193959045237
8,74.0
9,1.5
10,290.0
11,332.66666666666663
12,25.333333333333332
13,20.0
838,25.569925145810014
839,61.75825914655795
902,17.116008758544922
903,25.565895080566406
1051,4727.781149137672
1313,0.0
1078,2836668.689482603
2,1, 7, 1, 0,10,50.00,60.00,Monday
7,28.0180794167493
8,74.0
9,1.5
10,290.0
11,342.0
12,28.0
13,20.0
838,25.545997079364586
839,62.27718587897522
902,17.352561950683594
903,25.54393196105957
1051,5244.79480242092
1313,0.0
1078,3146876.881452552
2,1, 7, 1, 0,11, 0.00,10.00,Monday
7,27.86550723837588
8,74.0
9,1.6833333333333333
10,265.0
11,351.3333333333333
12,30.666666666666668
13,20.0
838,25.532018328674493
839,62.30728021719567
902,17.43575668334961
903,25.5314884185791
1051,5540.71064556396
1313,0.0
1078,3324426.3873383757
2,1, 7, 1, 0,11,10.00,20.00,Monday
7,27.712935060002465
8,74.0
9,1.8666666666666667
10,240.0
11,360.6666666666667
12,33.333333333333336
13,20.0
838,25.52696467420821
839,62.085658954333155
902,17.277406692504883
903,25.52768898010254
1051,5635.972999773301
1313,0.0
1078,3381583.7998639806
2,1, 7, 1, 0,11,20.00,30.00,Monday
7,27.560362881629047
8,74.0
9,2.05
10,215.0
11,370.0
12,36.0
13,20.0
838,25.515329591462404
839,61.77117799413454
902,17.21662139892578
903,25.51531410217285
1051,5731.809578904162
1313,0.0
1078,3439085.747342497
2,1, 7, 1, 0,11,30.00,40.00,Monday
7,27.407790703255632
8,74.0
9,2.2333333333333334
10,190.0
11,375.83333333333337
12,37.0
13,20.0
838,25.509660803500253
839,61.4276775609807
902,17.167715072631836
903,25.510391235351563
1051,5680.900724902944
1313,0.0
1078,3408540.4349417663
2,1, 7, 1, 0,11,40.00,50.00,Monday
7,27.255218524882217
8,74.0
9,2.416666666666667
10,165.0
11,381.66666666666663
12,38.0
13,20.0
838,25.508104034113117
839,61.112957008532895
902,17.097328186035156
903,25.50933074951172
1051,5633.291391539972
1313,0.0
1078,3379974.8349239836
2,1, 7, 1, 0,11,50.00,60.00,Monday
7,27.1026463465088
8,74.0
9,2.6
10,140.0
11,387.5
12,39.0
13,20.0
838,25.507152973173977
839,60.849827012173996
902,17.030794143676758
903,25.508424758911133
1051,5600.506668460903
1313,0.0
1078,3360304.001076542
2,1, 7, 1, 0,12, 0.00,10.00,Monday
7,27.095967361271164
8,74.83333333333334
9,2.416666666666667
10,136.66666666666666
11,393.33333333333337
12,40.0
13,16.0
838,25.507492711366115
839,60.64342881167823
902,16.97368621826172
903,25.50860595703125
1051,5250.30853983011
1313,0.0
1078,3150185.123898066
2,1, 7, 1, 0,12,10.00,20.00,Monday
7,27.089288376033533
8,75.66666666666667
9,2.2333333333333334
10,133.33333333333334
11,399.16666666666663
12,41.0
13,16.0
838,25.52408883692905
839,60.50635933876565
902,16.35846519470215
903,25.52709197998047
1051,5212.253697927613
1313,0.0
1078,3127352.2187565677
2,1, 7, 1, 0,12,20.00,30.00,Monday
7,27.082609390795895
8,76.5
9,2.05
10,130.0
11,405.0
12,42.0
13,16.0
838,25.550417405731785
839,60.66710627506012
902,16.517744064331055
903,25.554452896118164
1051,4762.50511853136
1313,0.0
1078,2857503.071118816
2,1, 7, 1, 0,12,30.00,40.00,Monday
7,27.075930405558264
8,77.33333333333333
9,1.8666666666666667
10,126.66666666666667
11,396.16666666666663
12,38.833333333333336
13,16.0
838,25.598188923614064
839,61.041433570409446
902,16.2724609375
903,25.60491371154785
1051,4579.495108254702
1313,0.0
1078,2747697.0649528215
2,1, 7, 1, 0,12,40.00,50.00,Monday
7,27.06925142032063
8,78.16666666666667
9,1.6833333333333331
10,123.33333333333333
11,387.33333333333337
12,35.66666666666667
13,16.0
838,25.601764683016295
839,61.586664639971225
902,16.439010620117188
903,25.6027889251709
1051,4792.206277209051
1313,0.0
1078,2875323.766325431
2,1, 7, 1, 0,12,50.00,60.00,Monday
7,27.062572435082995
8,79.0
9,1.5
10,120.0
11,378.5
12,32.5
13,16.0
838,25.597555225121173
839,62.13244331907036
902,16.81368637084961
903,25.59747886657715
1051,4832.536418882895
1313,0.0
1078,2899521.8513297373
2,1, 7, 1, 0,13, 0.00,10.00,Monday
7,27.044457116118295
8,79.00000000000001
9,1.6
10,120.0
11,369.66666666666663
12,29.333333333333332
13,8.0
838,25.605674544738836
839,62.27568293046449
902,17.092525482177734
903,25.607051849365234
1051,3914.306640170086
1313,0.0
1078,2348583.9841020517
2,1, 7, 1, 0,13,10.00,20.00,Monday
7,27.02634179715359
8,79.0
9,1.7
10,120.0
11,360.83333333333337
12,26.166666666666664
13,8.0
838,25.576015351355576
839,62.36997626932356
902,15.713289260864258
903,25.572858810424805
1051,4021.5202856768274
1313,0.0
1078,2412912.1714060963
2,1, 7, 1, 0,13,20.00,30.00,Monday
7,27.008226478188885
8,79.0
9,1.8
10,120.0
11,352.0
12,23.0
13,8.0
838,25.590405507601524
839,62.288526778352384
902,16.32223129272461
903,25.592432022094727
1051,3732.2720254850587
1313,0.0
1078,2239363.2152910354
2,1, 7, 1, 0,13,30.00,40.00,Monday
7,26.990111159224185
8,79.0
9,1.9
10,120.0
11,349.33333333333337
12,23.5
13,8.0
838,25.59196192666476
839,62.285583550184384
902,16.10283660888672
903,25.592538833618164
1051,3690.443793838758
1313,0.0
1078,2214266.276303255
2,1, 7, 1, 0,13,40.00,50.00,Monday
7,26.971995840259478
8,79.0
9,2.0
10,120.0
11,346.66666666666663
12,24.0
13,8.0
838,25.59312156655396
839,62.31019327860382
902,16.144535064697266
903,25.593643188476563
1051,3553.9248910041806
1313,0.0
1078,2132354.9346025083
2,1, 7, 1, 0,13,50.00,60.00,Monday
7,26.953880521294774
8,79.0
9,2.1
10,120.0
11,344.0
12,24.5
13,8.0
838,25.59918322928995
839,62.33114186807563
902,16.08285140991211
903,25.600244522094727
1051,3447.884666889126
1313,0.0
1078,2068730.8001334756
2,1, 7, 1, 0,14, 0.00,10.00,Monday
7,26.88804111846219
8,79.00000000000001
9,2.1833333333333336
10,120.0
11,341.33333333333337
12,25.0
13,16.0
838,25.602509529901337
839,62.70271404220886
902,16.0513916015625
903,25.603418350219727
1051,4099.776922708118
1313,0.0
1078,2459866.153624871
2,1, 7, 1, 0,14,10.00,20.00,Monday
7,26.822201715629607
8,79.0
9,2.2666666666666666
10,120.0
11,338.66666666666663
12,25.5
13,16.0
838,25.630368147728174
839,63.0667311777861
902,16.95005226135254
903,25.634517669677734
1051,3909.063529835955
1313,0.0
1078,2345438.117901573
2,1, 7, 1, 0,14,20.00,30.00,Monday
7,26.756362312797016
8,79.0
9,2.35
10,120.0
11,336.0
12,26.0
13,16.0
838,25.61549854327973
839,63.469901239661816
902,16.62991714477539
903,25.61414909362793
1051,4096.344903779638
1313,0.0
1078,2457806.942267783
2,1, 7, 1, 0,14,30.00,40.00,Monday
7,26.690522909964436
8,79.0
9,2.4333333333333336
10,120.0
11,318.0
12,22.833333333333336
13,16.0
838,25.60344890479408
839,63.72490516353305
902,16.900400161743164
903,25.602571487426758
1051,3989.4847047094227
1313,0.0
1078,2393690.8228256535
2,1, 7, 1, 0,14,40.00,50.00,Monday
7,26.624683507131845
8,79.0
9,2.516666666666667
10,120.0
11,300.0
12,19.666666666666668
13,16.0
838,25.58840297117443
839,63.893528537092656
902,17.09382438659668
903,25.58713722229004
1051,4000.2663556501525
1313,0.0
1078,2400159.8133900915
2,1, 7, 1, 0,14,50.00,60.00,Monday
7,26.55884410429926
8,79.0
9,2.6
10,120.0
11,282.0
12,16.5
13,16.0
838,25.569495962700447
839,64.01762557824128
902,17.36534881591797
903,25.567716598510742
1051,3947.6868834874103
1313,0.0
1078,2368612.130092446
2,1, 7, 1, 0,15, 0.00,10.00,Monday
7,26.350036846244365
8,79.83333333333334
9,2.85
10,125.0
11,264.0
12,13.333333333333332
13,20.0
838,25.55402462198754
839,64.27366350842456
902,17.599029541015625
903,25.552661895751953
1051,4027.091077373756
1313,0.0
1078,2416254.6464242535
2,1, 7, 1, 0,15,10.00,20.00,Monday
7,26.141229588189468
8,80.66666666666667
9,3.1
10,130.0
11,246.0
12,10.166666666666666
13,20.0
838,25.558148094781576
839,64.50001065525358
902,18.147335052490234
903,25.559602737426758
1051,3851.621494523938
1313,0.0
1078,2310972.896714363
2,1, 7, 1, 0,15,20.00,30.00,Monday
7,25.932422330134568
8,81.5
9,3.3499999999999996
10,135.0
11,228.0
12,7.0
13,20.0
838,25.52418130863487
839,64.7880477127799
902,18.288219451904297
903,25.5201416015625
1051,3967.703051772584
1313,0.0
1078,2380621.8310635504
2,1, 7, 1, 0,15,30.00,40.00,Monday
7,25.723615072079667
8,82.33333333333334
9,3.5999999999999996
10,140.0
11,234.0
12,10.0
13,20.0
838,25.504370762520473
839,64.94974641878144
902,18.773414611816406
903,25.502487182617188
1051,3873.466247069812
1313,0.0
1078,2324079.7482418874
2,1, 7, 1, 0,15,40.00,50.00,Monday
7,25.514807814024774
8,83.16666666666666
9,3.8499999999999996
10,145.0
11,240.0
12,13.0
13,20.0
838,25.499222387364313
839,65.01930175330483
902,18.66789436340332
903,25.499462127685547
1051,3847.9161432835435
1313,0.0
1078,2308749.685970126
2,1, 7, 1, 0,15,50.00,60.00,Monday
7,25.306000555969874
8,84.0
9,4.1
10,150.0
11,246.0
12,16.0
13,20.0
838,25.498406443524285
839,65.05674177843336
902,18.693906784057617
903,25.499277114868164
1051,3821.5398010004715
1313,0.0
1078,2292923.880600283
2,1, 7, 1, 0,16, 0.00,10.00,Monday
7,25.238259989146957
8,84.83333333333333
9,4.1
10,151.66666666666666
11,252.0
12,19.0
13,20.0
838,25.496747491783704
839,65.1477002047414
902,18.672258377075195
903,25.497461318969727
1051,3612.6722481481793
1313,0.0
1078,2167603.3488889076
2,1, 7, 1, 0,16,10.00,20.00,Monday
7,25.170519422324038
8,85.66666666666667
9,4.1
10,153.33333333333334
11,258.0
12,22.000000000000004
13,20.0
838,25.544132122500304
839,65.13297856443452
902,18.486684799194336
903,25.55108642578125
1051,3373.487565838408
1313,0.0
1078,2024092.539503045
2,1, 7, 1, 0,16,20.00,30.00,Monday
7,25.102778855501118
8,86.5
9,4.1
10,155.0
11,264.0
12,25.0
13,20.0
838,25.54980821776411
839,65.25779698922192
902,18.352479934692383
903,25.551515579223633
1051,3587.991668417604
1313,0.0
1078,2152795.0010505626
2,1, 7, 1, 0,16,30.00,40.00,Monday
7,25.0350382886782
8,87.33333333333333
9,4.1
10,156.66666666666666
11,240.0
12,20.833333333333336
13,20.0
838,25.5624785108527
839,65.33189498648757
902,18.51207733154297
903,25.565073013305664
1051,3407.3793298779724
1313,0.0
1078,2044427.5979267834
2,1, 7, 1, 0,16,40.00,50.00,Monday
7,24.96729772185528
8,88.16666666666667
9,4.1
10,158.33333333333334
11,216.00000000000003
12,16.666666666666668
13,20.0
838,25.54627337086163
839,65.46536717381258
902,18.892847061157227
903,25.545089721679688
1051,3487.361499397911
1313,0.0
1078,2092416.8996387464
2,1, 7, 1, 0,16,50.00,60.00,Monday
7,24.899557155032362
8,89.0
9,4.1
10,160.0
11,192.0
12,12.5
13,20.0
838,25.542314154127112
839,65.53508143142288
902,19.444507598876953
903,25.54277992248535
1051,3329.6555520154257
1313,0.0
1078,1997793.3312092554
2,1, 7, 1, 0,17, 0.00,10.00,Monday
7,24.903963392074417
8,89.83333333333334
9,3.933333333333333
10,156.66666666666666
11,168.0
12,8.333333333333332
13,20.0
838,25.53701504879539
839,65.7228169823448
902,19.83710479736328
903,25.537273406982422
1051,2855.6737464896014
1313,0.0
1078,1713404.247893761
2,1, 7, 1, 0,17,10.00,20.00,Monday
7,24.90836962911648
8,90.66666666666667
9,3.7666666666666666
10,153.33333333333334
11,144.0
12,4.166666666666666
13,20.0
838,25.593884640180587
839,65.65856711923229
902,20.05331039428711
903,25.600982666015625
1051,2626.4354152543956
1313,0.0
1078,1575861.2491526373
2,1, 7, 1, 0,17,20.00,30.00,Monday
7,24.91277586615853
8,91.5
9,3.5999999999999996
10,150.0
11,120.0
12,0.0
13,20.0
838,25.594808566284648
839,65.79183131106726
902,20.404987335205078
903,25.595869064331055
1051,2697.7538221974273
1313,0.0
1078,1618652.2933184565
2,1, 7, 1, 0,17,30.00,40.00,Monday
7,24.917182103200588
8,92.33333333333334
9,3.433333333333333
10,146.66666666666666
11,113.16666666666666
12,0.0
13,20.0
838,25.63565367322182
839,65.68336894600745
902,21.012250900268555
903,25.6409969329834
1051,2531.6607371897185
1313,0.0
1078,1518996.442313831
2,1, 7, 1, 0,17,40.00,50.00,Monday
7,24.921588340242643
8,93.16666666666667
9,3.2666666666666666
10,143.33333333333334
11,106.33333333333334
12,0.0
13,20.0
838,25.646995787587052
839,65.67929545865016
902,21.08358383178711
903,25.64925193786621
1051,2594.3655270524396
1313,0.0
1078,1556619.3162314638
2,1, 7, 1, 0,17,50.00,60.00,Monday
7,24.925994577284698
8,94.0
9,3.1
10,140.0
11,99.5
12,0.0
13,20.0
838,25.69151633410559
839,65.51416439854054
902,21.438560485839844
903,25.697114944458008
1051,2465.8418235888016
1313,0.0
1078,1479505.0941532808
2,1, 7, 1, 0,18, 0.00,10.00,Monday
7,24.664626262437892
8,94.00000000000001
9,2.9333333333333336
10,141.66666666666666
11,92.66666666666666
12,0.0
13,20.0
838,25.712836230805685
839,65.38757999225585
902,21.564722061157227
903,25.716169357299805
1051,2444.953503499936
1313,0.0
1078,1466972.1020999614
2,1, 7, 1, 0,18,10.00,20.00,Monday
7,24.403257947591086
8,94.0
9,2.7666666666666666
10,143.33333333333334
11,85.83333333333334
12,0.0
13,20.0
838,25.814263309603366
839,64.85125474771347
902,21.789409637451172
903,25.82462501525879
1051,2153.058456006662
1313,0.0
1078,1291835.073603997
2,1, 7, 1, 0,18,20.00,30.00,Monday
7,24.14188963274428
8,94.0
9,2.6
10,145.0
11,79.0
12,0.0
13,20.0
838,25.80110756636897
839,64.73281860387263
902,21.817142486572266
903,25.80084228515625
1051,2343.7277083489803
1313,0.0
1078,1406236.6250093882
2,1, 7, 1, 0,18,30.00,40.00,Monday
7,23.880521317897475
8,94.0
9,2.4333333333333336
10,146.66666666666666
11,68.00000000000001
12,0.0
13,20.0
838,25.870710167078197
839,64.23125725092261
902,22.392688751220703
903,25.878124237060547
1051,2019.2878824993486
1313,0.0
1078,1211572.7294996092
2,1, 7, 1, 0,18,40.00,50.00,Monday
7,23.61915300305067
8,94.0
9,2.2666666666666666
10,148.33333333333334
11,57.0
12,0.0
13,20.0
838,25.8932039852285
839,63.87600278693508
902,22.513700485229492
903,25.897472381591797
1051,2113.8678213517974
1313,0.0
1078,1268320.6928110784
2,1, 7, 1, 0,18,50.00,60.00,Monday
7,23.357784688203864
8,94.0
9,2.1
10,150.0
11,46.0
12,0.0
13,20.0
838,25.951762596374405
839,63.35383567080724
902,22.983760833740234