Program Version,EnergyPlus, Version 24.1.0-9d7789a3ac, YMD=2025.08.14 13:26
1,5,Environment Title[],Latitude[deg],Longitude[deg],Time Zone[],Elevation[m]
2,8,Day of Simulation[],Month[],Day of Month[],DST Indicator[1=yes 0=no],Hour[],StartMinute[],EndMinute[],DayType
3,5,Cumulative Day of Simulation[],Month[],Day of Month[],DST Indicator[1=yes 0=no],DayType  ! When Daily Report Variables Requested
4,2,Cumulative Days of Simulation[],Month[]  ! When Monthly Report Variables Requested
5,1,Cumulative Days of Simulation[] ! When Run Period Report Variables Requested
6,1,Calendar Year of Simulation[] ! When Annual Report Variables Requested
7,1,Environment,Site Outdoor Air Drybulb Temperature [C] !TimeStep
8,1,Environment,Site Outdoor Air Relative Humidity [%] !TimeStep
9,1,Environment,Site Wind Speed [m/s] !TimeStep
10,1,Environment,Site Wind Direction [deg] !TimeStep
11,1,Environment,Site Diffuse Solar Radiation Rate per Area [W/m2] !TimeStep
12,1,Environment,Site Direct Solar Radiation Rate per Area [W/m2] !TimeStep
13,1,SPACE5-1,Zone People Occupant Count [] !TimeStep
838,1,SPACE5-1,Zone Air Temperature [C] !TimeStep
839,1,SPACE5-1,Zone Air Relative Humidity [%] !TimeStep
902,1,SPACE5-1,Zone Thermostat Heating Setpoint Temperature [C] !TimeStep
903,1,SPACE5-1,Zone Thermostat Cooling Setpoint Temperature [C] !TimeStep
1051,1,Whole Building,Facility Total HVAC Electricity Demand Rate [W] !TimeStep
1313,1,Site,Environmental Impact Total CO2 Emissions Carbon Equivalent Mass [kg] !TimeStep
1078,1,Electricity:HVAC [J] !TimeStep
End of Data Dictionary
1,RUNPERIOD 1,  35.25, 136.93,   9.00,  17.00
2,1, 7, 1, 0, 1, 0.00,10.00,Monday
7,24.474249528875784
8,88.0
9,2.3333333333333335
10,195.0
11,0.0
12,0.0
13,0.0
838,21.563710769118764
839,52.630301225419295
902,12.8
903,40.0
1051,506.4486563033798
1313,0.0
1078,303869.19378202787
2,1, 7, 1, 0, 1,10.00,20.00,Monday
7,24.1850683197861
8,87.0
9,2.066666666666667
10,210.0
11,0.0
12,0.0
13,0.0
838,22.093005690014323
839,50.66603765643693
902,23.25
903,26.850193023681644
1051,6514.776497576688
1313,0.0
1078,3908865.898546012
2,1, 7, 1, 0, 1,20.00,30.00,Monday
7,23.895887110696414
8,86.0
9,1.8
10,225.0
11,0.0
12,0.0
13,0.0
838,22.594839933254804
839,48.8485819458372
902,23.249999999999993
903,26.262916564941392
1051,4636.146555099848
1313,0.0
1078,2781687.93305991
2,1, 7, 1, 0, 1,30.00,40.00,Monday
7,23.606705901606727
8,85.0
9,1.5333333333333334
10,240.0
11,0.0
12,0.0
13,0.0
838,22.964785079451765
839,47.4521649698673
902,23.250000000000007
903,26.68815994262696
1051,4466.242897556922
1313,0.0
1078,2679745.738534152
2,1, 7, 1, 0, 1,40.00,50.00,Monday
7,23.31752469251704
8,84.0
9,1.2666666666666666
10,255.0
11,0.0
12,0.0
13,0.0
838,23.2374382754417
839,46.275457852277384
902,23.25
903,26.387746810913086
1051,4419.5462266805325
1313,0.0
1078,2651727.7360083195
2,1, 7, 1, 0, 1,50.00,60.00,Monday
7,23.028343483427353
8,83.0
9,1.0
10,270.0
11,0.0
12,0.0
13,0.0
838,23.25005356202285
839,45.795403820263466
902,23.25
903,25.785890579223633
1051,3728.383534597144
1313,0.0
1078,2237030.120758286
2,1, 7, 1, 0, 2, 0.00,10.00,Monday
7,23.124682532618657
8,83.5
9,1.0
10,295.0
11,0.0
12,0.0
13,0.0
838,23.25049713722834
839,45.34133578051806
902,23.25
903,26.36042022705078
1051,3764.024397545716
1313,0.0
1078,2258414.6385274297
2,1, 7, 1, 0, 2,10.00,20.00,Monday
7,23.221021581809957
8,84.0
9,1.0
10,320.0
11,0.0
12,0.0
13,0.0
838,23.250442871186817
839,44.89671013496155
902,23.25
903,26.743404388427734
1051,3550.4963793628795
1313,0.0
1078,2130297.8276177277
2,1, 7, 1, 0, 2,20.00,30.00,Monday
7,23.31736063100126
8,84.5
9,1.0
10,345.0
11,0.0
12,0.0
13,0.0
838,23.25041343321394
839,44.46327746612981
902,23.25
903,27.590286254882813
1051,3435.0025283029922
1313,0.0
1078,2061001.5169817954
2,1, 7, 1, 0, 2,30.00,40.00,Monday
7,23.413699680192565
8,85.0
9,1.0
10,10.0
11,0.0
12,0.0
13,0.0
838,23.250392094762553
839,44.0395298557126
902,23.25
903,26.845500946044922
1051,3344.804523495971
1313,0.0
1078,2006882.7140975825
2,1, 7, 1, 0, 2,40.00,50.00,Monday
7,23.510038729383865
8,85.5
9,1.0
10,35.0
11,0.0
12,0.0
13,0.0
838,23.25037567949414
839,43.62338372164935
902,23.25
903,26.069448471069336
1051,3272.8360596932557
1313,0.0
1078,1963701.6358159534
2,1, 7, 1, 0, 2,50.00,60.00,Monday
7,23.60637777857517
8,86.0
9,1.0
10,60.0
11,0.0
12,0.0
13,0.0
838,23.250362861593604
839,43.21353365350543
902,23.25
903,25.92227554321289
1051,3216.5575955989134
1313,0.0
1078,1929934.557359348
2,1, 7, 1, 0, 3, 0.00,10.00,Monday
7,23.60879147680737
8,86.33333333333334
9,1.0
10,73.33333333333333
11,0.0
12,0.0
13,0.0
838,23.25035215658397
839,42.80928882824837
902,23.25
903,26.553739547729492
1051,3177.7774960132447
1313,0.0
1078,1906666.4976079469
2,1, 7, 1, 0, 3,10.00,20.00,Monday
7,23.611205175039576
8,86.66666666666667
9,1.0
10,86.66666666666666
11,0.0
12,0.0
13,0.0
838,23.25034300248036
839,42.41041058216943
902,23.25
903,27.10833168029785
1051,3147.8079997644313
1313,0.0
1078,1888684.7998586588
2,1, 7, 1, 0, 3,20.00,30.00,Monday
7,23.613618873271776
8,87.0
9,1.0
10,100.0
11,0.0
12,0.0
13,0.0
838,23.25033504413531
839,42.01683731831499
902,23.25
903,27.15496253967285
1051,3124.325184645501
1313,0.0
1078,1874595.1107873006
2,1, 7, 1, 0, 3,30.00,40.00,Monday
7,23.61603257150398
8,87.33333333333334
9,1.0
10,113.33333333333333
11,0.0
12,0.0
13,0.0
838,23.250328019445643
839,41.62853576358568
902,23.25
903,27.34171485900879
1051,3105.765201728295
1313,0.0
1078,1863459.121036977
2,1, 7, 1, 0, 3,40.00,50.00,Monday
7,23.618446269736182
8,87.66666666666667
9,1.0
10,126.66666666666667
11,0.0
12,0.0
13,0.0
838,23.250321885325857
839,41.245434373132525
902,23.25
903,26.91942024230957
1051,3091.997181754338
1313,0.0
1078,1855198.3090526026
2,1, 7, 1, 0, 3,50.00,60.00,Monday
7,23.620859967968382
8,88.0
9,1.0
10,140.0
11,0.0
12,0.0
13,0.0
838,23.2503161935542
839,40.86743854158369
902,23.25
903,27.974254608154297
1051,3080.2714445981355
1313,0.0
1078,1848162.8667588814
2,1, 7, 1, 0, 4, 0.00,10.00,Monday
7,23.625696183158205
8,88.33333333333334
9,0.9166666666666667
10,140.0
11,0.0
12,0.0
13,0.0
838,23.250310921123845
839,40.49444474146127
902,23.25
903,26.9455623626709
1051,3071.0680604716836
1313,0.0
1078,1842640.8362830102
2,1, 7, 1, 0, 4,10.00,20.00,Monday
7,23.630532398348024
8,88.66666666666667
9,0.8333333333333334
10,140.0
11,0.0
12,0.0
13,0.0
838,23.250305997177833
839,40.126363780596385
902,23.25
903,26.889781951904297
1051,3063.755910083701
1313,0.0
1078,1838253.5460502207
2,1, 7, 1, 0, 4,20.00,30.00,Monday
7,23.63536861353784
8,89.0
9,0.75
10,140.0
11,0.0
12,0.0
13,0.0
838,23.250301357270743
839,39.763103579717544
902,23.25
903,27.21074867248535
1051,3057.8614061566027
1313,0.0
1078,1834716.8436939616
2,1, 7, 1, 0, 4,30.00,40.00,Monday
7,23.640204828727658
8,89.33333333333334
9,0.6666666666666667
10,140.0
11,0.0
12,0.0
13,0.0
838,23.250296949784104
839,39.404580799514946
902,23.25
903,27.582069396972656
1051,3053.050614465844
1313,0.0
1078,1831830.3686795062
2,1, 7, 1, 0, 4,40.00,50.00,Monday
7,23.645041043917477
8,89.66666666666666
9,0.5833333333333333
10,140.0
11,0.0
12,0.0
13,0.0
838,23.250292733814582
839,39.05071956250134
902,23.25
903,27.369037628173828
1051,3049.076734954438
1313,0.0
1078,1829446.0409726629
2,1, 7, 1, 0, 4,50.00,60.00,Monday
7,23.649877259107296
8,90.0
9,0.5
10,140.0
11,0.0
12,0.0
13,0.0
838,23.25028867754399
839,38.70143746595912
902,23.25
903,27.957138061523438
1051,3045.75217843618
1313,0.0
1078,1827451.307061708
2,1, 7, 1, 0, 5, 0.00,10.00,Monday
7,23.65274229332602
8,90.0
9,0.5833333333333334
10,125.0
11,0.0
12,0.0
13,0.0
838,23.25028494598879
839,38.35656168677396
902,23.25
903,27.730236053466797
1051,3043.3231588794533
1313,0.0
1078,1825993.8953276721
2,1, 7, 1, 0, 5,10.00,20.00,Monday
7,23.655607327544743
8,90.0
9,0.6666666666666667
10,110.0
11,0.0
12,0.0
13,0.0
838,23.25028127016699
839,38.01595356397895
902,23.25
903,27.562593460083008
1051,3040.706425412762
1313,0.0
1078,1824423.8552476573
2,1, 7, 1, 0, 5,20.00,30.00,Monday
7,23.65847236176346
8,90.0
9,0.75
10,95.0
11,0.0
12,0.0
13,0.0
838,23.25027769048381
839,37.67952322471867
902,23.25
903,27.489154815673828
1051,3038.3662303605624
1313,0.0
1078,1823019.7382163375
2,1, 7, 1, 0, 5,30.00,40.00,Monday
7,23.661337395982184
8,90.0
9,0.8333333333333333
10,80.0
11,0.0
12,0.0
13,0.0
838,23.25027418334569
839,37.34721727427876
902,23.25
903,27.15045928955078
1051,3036.2119944271144
1313,0.0
1078,1821727.1966562686
2,1, 7, 1, 0, 5,40.00,50.00,Monday
7,23.664202430200906
8,90.0
9,0.9166666666666667
10,65.0
11,9.33333333333333
12,0.0
13,0.0
838,23.25027076283389
839,37.0189829437653
902,23.25
903,27.89977264404297
1051,2974.293694203508
1313,0.0
1078,1784576.2165221048
2,1, 7, 1, 0, 5,50.00,60.00,Monday
7,23.667067464419627
8,90.0
9,1.0
10,50.0
11,13.5
12,0.0
13,0.0
838,23.250267129524136
839,36.694753348603484
902,23.25
903,26.930940628051758
1051,2930.0418185664694
1313,0.0
1078,1758025.0911398816
2,1, 7, 1, 0, 6, 0.00,10.00,Monday
7,23.70647379332459
8,90.16666666666667
9,1.0
10,48.333333333333336
11,17.666666666666668
12,0.0
13,0.0
838,23.25026319286835
839,36.37454989049407
902,23.25
903,27.912765502929688
1051,2881.585224623145
1313,0.0
1078,1728951.1347738872
2,1, 7, 1, 0, 6,10.00,20.00,Monday
7,23.745880122229554
8,90.33333333333334
9,1.0
10,46.666666666666664
11,21.833333333333336
12,0.0
13,0.0
838,23.250259139932183
839,36.058334406538876
902,23.25
903,27.098331451416016
1051,2830.2417440838035
1313,0.0
1078,1698145.0464502822
2,1, 7, 1, 0, 6,20.00,30.00,Monday
7,23.785286451134514
8,90.5
9,1.0
10,45.0
11,26.0
12,0.0
13,0.0
838,23.25025501519599
839,35.74603279464677
902,23.25
903,27.251869201660156
1051,2776.2874425615732
1313,0.0
1078,1665772.4655369439
2,1, 7, 1, 0, 6,30.00,40.00,Monday
7,23.824692780039477
8,90.66666666666667
9,1.0
10,43.333333333333336
11,39.33333333333333
12,0.0
13,0.0
838,23.250250759079197
839,35.43754852153598
902,23.25
903,27.438432693481445
1051,2657.206254519687
1313,0.0
1078,1594323.752711812
2,1, 7, 1, 0, 6,40.00,50.00,Monday
7,23.864099108944437
8,90.83333333333334
9,1.0
10,41.666666666666664
11,52.666666666666664
12,0.0
13,0.0
838,23.250246251840327
839,35.13273530370641
902,23.25
903,26.31501007080078
1051,2506.4472426638827
1313,0.0
1078,1503868.3455983296
2,1, 7, 1, 0, 6,50.00,60.00,Monday
7,23.9035054378494
8,91.0
9,1.0
10,40.0
11,66.0
12,0.0
13,0.0
838,23.250241195508284
839,34.831430760282885
902,23.25
903,27.135923385620117
1051,2380.8289160509244
1313,0.0
1078,1428497.3496305547
2,1, 7, 1, 0, 7, 0.00,10.00,Monday
7,24.062938282186867
8,89.83333333333334
9,1.0
10,58.33333333333333
11,79.33333333333334
12,0.0
13,0.0
838,23.249193235788763
839,35.16869954770815
902,23.25
903,27.0771541595459
1051,1911.676922496763
1313,0.0
1078,1147006.1534980577
2,1, 7, 1, 0, 7,10.00,20.00,Monday
7,24.222371126524337
8,88.66666666666667
9,1.0
10,76.66666666666666
11,92.66666666666667
12,0.0
13,0.0
838,23.249225295827305
839,35.86552988549021
902,23.25
903,27.033964157104492
1051,1778.4270879896749
1313,0.0
1078,1067056.252793805
2,1, 7, 1, 0, 7,20.00,30.00,Monday
7,24.381803970861803
8,87.5
9,1.0
10,95.0
11,106.0
12,0.0
13,0.0
838,23.249301988157807
839,36.6378255836121
902,23.25
903,28.191490173339844
1051,1606.7720833818234
1313,0.0
1078,964063.250029094
2,1, 7, 1, 0, 7,30.00,40.00,Monday
7,24.54123681519927
8,86.33333333333334
9,1.0
10,113.33333333333333
11,119.16666666666667
12,1.1666666666666665
13,0.0
838,23.249373985677476
839,37.360258430310154
902,23.25
903,27.678590774536133
1051,1437.5482014026536
1313,0.0
1078,862528.9208415921
2,1, 7, 1, 0, 7,40.00,50.00,Monday
7,24.700669659536736
8,85.16666666666666
9,1.0
10,131.66666666666669
11,132.33333333333331
12,2.333333333333333
13,0.0
838,23.24943444472532
839,38.01275508605811
902,23.25
903,27.188705444335938
1051,1357.0836410172478
1313,0.0
1078,814250.1846103487
2,1, 7, 1, 0, 7,50.00,60.00,Monday
7,24.860102503874202
8,84.0
9,1.0
10,150.0
11,145.5
12,3.5
13,0.0
838,23.24948419079639
839,38.611091017884505
902,23.25
903,27.656288146972656
1051,1298.3170971471313
1313,0.0
1078,778990.2582882788
2,1, 7, 1, 0, 8, 0.00,10.00,Monday
7,25.050486856977898
8,83.16666666666667
9,0.9166666666666667
10,150.0
11,158.66666666666669
12,4.666666666666667
13,0.0
838,23.249519778588777
839,39.17737996509251
902,23.25
903,27.16916275024414
1051,1239.708387577768
1313,0.0
1078,743825.0325466607
2,1, 7, 1, 0, 8,10.00,20.00,Monday
7,25.24087121008159
8,82.33333333333334
9,0.8333333333333334
10,150.0
11,171.83333333333334
12,5.833333333333334
13,0.0
838,23.2495529932218
839,39.72419540279008
902,23.25
903,27.683349609375
1051,1176.5906821535007
1313,0.0
1078,705954.4092921005
2,1, 7, 1, 0, 8,20.00,30.00,Monday
7,25.43125556318528
8,81.5
9,0.75
10,150.0
11,185.0
12,7.0
13,0.0
838,23.249586250073545
839,40.25592502606874
902,23.25
903,27.923349380493164
1051,1122.652202569365
1313,0.0
1078,673591.321541619
2,1, 7, 1, 0, 8,30.00,40.00,Monday
7,25.621639916288974
8,80.66666666666667
9,0.6666666666666667
10,150.0
11,200.5
12,8.666666666666666
13,0.0
838,23.249620338350777
839,40.77316650971475
902,23.25
903,27.811918258666992
1051,1101.3133435932893
1313,0.0
1078,660788.0061559736
2,1, 7, 1, 0, 8,40.00,50.00,Monday
7,25.81202426939267
8,79.83333333333334
9,0.5833333333333333
10,150.0
11,216.0
12,10.333333333333332
13,0.0
838,23.249655516081997
839,41.27539286955882
902,23.25
903,26.54111671447754
1051,1077.4536978449507
1313,0.0
1078,646472.2187069705
2,1, 7, 1, 0, 8,50.00,60.00,Monday
7,26.00240862249636
8,79.0
9,0.5
10,150.0
11,231.5
12,12.0
13,0.0
838,23.249691830175927
839,41.76210337158591
902,23.25
903,26.867534637451172
1051,1050.5446679045085
1313,0.0
1078,630326.8007427051
2,1, 7, 1, 0, 9, 0.00,10.00,Monday
7,26.037119202519964
8,78.16666666666667
9,0.6666666666666667
10,173.33333333333334
11,247.0
12,13.666666666666668
13,20.0
838,23.954912867995013
839,41.347942374135194
902,23.25
903,27.274106979370117
1051,502.3777176467157
1313,0.0
1078,301426.63058802945
2,1, 7, 1, 0, 9,10.00,20.00,Monday
7,26.071829782543563
8,77.33333333333334
9,0.8333333333333334
10,196.66666666666666
11,262.5
12,15.333333333333334
13,20.0
838,24.6424261991543
839,41.101093048731414
902,17.575828552246094
903,27.529800415039063
1051,519.0708401262475
1313,0.0
1078,311442.5040757485
2,1, 7, 1, 0, 9,20.00,30.00,Monday
7,26.106540362567166
8,76.5
9,1.0
10,220.0
11,278.0
12,17.0
13,20.0
838,25.215128132492417
839,41.16919349293781
902,23.249999999999993
903,26.63517761230468
1051,654.1409779181099
1313,0.0
1078,392484.5867508661
2,1, 7, 1, 0, 9,30.00,40.00,Monday
7,26.141250942590766
8,75.66666666666666
9,1.1666666666666667
10,243.33333333333331
11,284.0
12,17.5
13,20.0
838,25.698880483203936
839,41.55201597187427
902,16.45764923095704
903,26.271976470947273
1051,1074.4813624706935
1313,0.0
1078,644688.8174824158
2,1, 7, 1, 0, 9,40.00,50.00,Monday
7,26.175961522614365
8,74.83333333333334
9,1.3333333333333333
10,266.6666666666667
11,290.0
12,18.0
13,20.0
838,25.36969096607626
839,44.73310525986901
902,12.175564765930186
903,25.36271858215334
1051,2597.05659238939
1313,0.0
1078,1558233.955433633
2,1, 7, 1, 0, 9,50.00,60.00,Monday
7,26.210672102637968
8,74.0
9,1.5
10,290.0
11,296.0
12,18.5
13,20.0
838,25.87596133648206
839,44.81402345933361
902,23.25
903,26.4937744140625
1051,872.6163201992913
1313,0.0
1078,523569.79211957473
2,1, 7, 1, 0,10, 0.00,10.00,Monday
7,26.369232375424865
8,74.0
9,1.5
10,290.0
11,302.0
12,19.0
13,20.0
838,25.123929996165423
839,47.88831351422044
902,12.671785354614258
903,25.10139274597168
1051,5405.814498162333
1313,0.0
1078,3243488.6988974
2,1, 7, 1, 0,10,10.00,20.00,Monday
7,26.527792648211758
8,74.0
9,1.5
10,290.0
11,308.0
12,19.5
13,20.0
838,26.015298823165693
839,46.58444852270053
902,17.18060302734375
903,26.886825561523438
1051,981.2434686796763
1313,0.0
1078,588746.0812078057
2,1, 7, 1, 0,10,20.00,30.00,Monday
7,26.68635292099865
8,74.0
9,1.5
10,290.0
11,314.0
12,20.0
13,20.0
838,25.40772158506771
839,49.02113991280508
902,23.249999999999993
903,25.39057159423827
1051,5756.049308393994
1313,0.0
1078,3453629.5850363974
2,1, 7, 1, 0,10,30.00,40.00,Monday
7,26.844913193785544
8,74.0
9,1.5
10,290.0
11,323.3333333333333
12,22.666666666666664
13,20.0
838,25.806051023486496
839,49.635480570379634
902,16.01334762573243
903,25.81067085266114
1051,2722.841130558761
1313,0.0
1078,1633704.6783352564
2,1, 7, 1, 0,10,40.00,50.00,Monday
7,27.00347346657244
8,74.0
9,1.5
10,290.0
11,332.66666666666663
12,25.333333333333332
13,20.0
838,26.36650144363209
839,51.27144788442164
902,13.676904678344727
903,26.41046142578125
1051,2181.8234638615463
1313,0.0
1078,1309094.078316928
2,1, 7, 1, 0,10,50.00,60.00,Monday
7,27.162033739359334
8,74.0
9,1.5
10,290.0
11,342.0
12,28.0
13,20.0
838,25.27073204760917
839,54.3923266397135
902,23.25
903,25.12826156616211
1051,7495.61195607123
1313,0.0
1078,4497367.173642739
2,1, 7, 1, 0,11, 0.00,10.00,Monday
7,26.985525743065736
8,74.0
9,1.6833333333333333
10,265.0
11,351.3333333333333
12,30.666666666666668
13,20.0
838,26.06752894658503
839,53.40265169884221
902,15.052021026611328
903,26.32160186767578
1051,2068.833133345646
1313,0.0
1078,1241299.8800073874
2,1, 7, 1, 0,11,10.00,20.00,Monday
7,26.809017746772138
8,74.0
9,1.8666666666666667
10,240.0
11,360.6666666666667
12,33.333333333333336
13,20.0
838,25.761121278550643
839,55.08653819257772
902,14.387750625610352
903,25.745187759399414
1051,4929.664012610594
1313,0.0
1078,2957798.4075663565
2,1, 7, 1, 0,11,20.00,30.00,Monday
7,26.632509750478533
8,74.0
9,2.05
10,215.0
11,370.0
12,36.0
13,20.0
838,26.55565072317005
839,53.63529869133413
902,17.024749755859375
903,26.79694175720215
1051,1886.5041588971985
1313,0.0
1078,1131902.4953383193
2,1, 7, 1, 0,11,30.00,40.00,Monday
7,26.45600175418494
8,74.0
9,2.2333333333333334
10,190.0
11,375.83333333333337
12,37.0
13,20.0
838,25.212598271625072
839,56.362447224280245
902,18.1151180267334
903,24.940032958984375
1051,9597.673969420335
1313,0.0
1078,5758604.3816522015
2,1, 7, 1, 0,11,40.00,50.00,Monday
7,26.279493757891334
8,74.0
9,2.416666666666667
10,165.0
11,381.66666666666663
12,38.0
13,20.0
838,26.15072180707138
839,54.091487742484034
902,23.25
903,26.513046264648438
1051,1979.1736884230359
1313,0.0
1078,1187504.2130538214
2,1, 7, 1, 0,11,50.00,60.00,Monday
7,26.102985761597736
8,74.0
9,2.6
10,140.0
11,387.5
12,39.0
13,20.0
838,25.837844083355805
839,55.23508011052232
902,13.312909126281738
903,25.82200050354004
1051,5345.1453567396275
1313,0.0
1078,3207087.2140437765
2,1, 7, 1, 0,12, 0.00,10.00,Monday
7,26.084230503076235
8,74.83333333333334
9,2.416666666666667
10,136.66666666666666
11,393.33333333333337
12,40.0
13,16.0
838,25.744264241943366
839,56.72871356836519
902,15.269850730895996
903,25.734350204467773
1051,3448.313761645494
1313,0.0
1078,2068988.2569872965
2,1, 7, 1, 0,12,10.00,20.00,Monday
7,26.065475244554733
8,75.66666666666667
9,2.2333333333333334
10,133.33333333333334
11,399.16666666666663
12,41.0
13,16.0
838,25.35989809193772
839,57.64132204603723
902,14.582733154296875
903,25.341602325439453
1051,6234.727645421361
1313,0.0
1078,3740836.587252816
2,1, 7, 1, 0,12,20.00,30.00,Monday
7,26.04671998603323
8,76.5
9,2.05
10,130.0
11,405.0
12,42.0
13,16.0
838,26.218030148456872
839,55.50224891087005
902,19.620071411132813
903,26.462711334228516
1051,1982.6673953983236
1313,0.0
1078,1189600.437238994
2,1, 7, 1, 0,12,30.00,40.00,Monday
7,26.02796472751173
8,77.33333333333333
9,1.8666666666666667
10,126.66666666666667
11,396.16666666666663
12,38.833333333333336
13,16.0
838,25.4407646462675
839,56.87083808155723
902,15.022419929504407
903,25.414813995361346
1051,7121.203996145731
1313,0.0
1078,4272722.397687435
2,1, 7, 1, 0,12,40.00,50.00,Monday
7,26.009209468990225
8,78.16666666666667
9,1.6833333333333331
10,123.33333333333333
11,387.33333333333337
12,35.66666666666667
13,16.0
838,25.881163694747208
839,55.96939195954069
902,20.395084381103516
903,25.887170791625977
1051,3380.0447627992835
1313,0.0
1078,2028026.85767957
2,1, 7, 1, 0,12,50.00,60.00,Monday
7,25.990454210468723
8,79.0
9,1.5
10,120.0
11,378.5
12,32.5
13,16.0
838,25.524534493700653
839,58.363783479485406
902,16.152164459228516
903,25.505115509033203
1051,4840.965492299077
1313,0.0
1078,2904579.2953794464
2,1, 7, 1, 0,13, 0.00,10.00,Monday
7,25.969076595771202
8,79.00000000000001
9,1.6
10,120.0
11,369.66666666666663
12,29.333333333333332
13,8.0
838,26.067628800746867
839,56.97102427276309
902,18.09332275390625
903,26.17516326904297
1051,2070.4753141803844
1313,0.0
1078,1242285.1885082307
2,1, 7, 1, 0,13,10.00,20.00,Monday
7,25.947698981073685
8,79.0
9,1.7
10,120.0
11,360.83333333333337
12,26.166666666666664
13,8.0
838,25.09219318094933
839,58.61816578837808
902,22.984655380249023
903,24.968994140625
1051,7439.933262276168
1313,0.0
1078,4463959.9573657
2,1, 7, 1, 0,13,20.00,30.00,Monday
7,25.92632136637616
8,79.0
9,1.8
10,120.0
11,352.0
12,23.0
13,8.0
838,25.6630527069945
839,56.75489127104166
902,17.987318038940423
903,25.800889968872056
1051,2205.990238749511
1313,0.0
1078,1323594.1432497068
2,1, 7, 1, 0,13,30.00,40.00,Monday
7,25.90494375167864
8,79.0
9,1.9
10,120.0
11,349.33333333333337
12,23.5
13,8.0
838,25.684891481790917
839,57.846061876668934
902,14.881677627563484
903,25.663042068481456
1051,4048.87551949892
1313,0.0
1078,2429325.311699351
2,1, 7, 1, 0,13,40.00,50.00,Monday
7,25.883566136981116
8,79.0
9,2.0
10,120.0
11,346.66666666666663
12,24.0
13,8.0
838,25.414307426553258
839,59.916939398754366
902,19.53664779663086
903,25.375333786010742
1051,3705.796533903942
1313,0.0
1078,2223477.9203423653
2,1, 7, 1, 0,13,50.00,60.00,Monday
7,25.8621885222836
8,79.0
9,2.1
10,120.0
11,344.0
12,24.5
13,8.0
838,26.135612176128294
839,57.696756930359655
902,13.713823318481445
903,26.409587860107422
1051,1479.5651430389926
1313,0.0
1078,887739.0858233956
2,1, 7, 1, 0,14, 0.00,10.00,Monday
7,25.890693865356027
8,79.00000000000001
9,2.1833333333333336
10,120.0
11,341.33333333333337
12,25.0
13,16.0
838,25.689216483551817
839,59.03756525261555
902,17.382423400878906
903,25.66153907775879
1051,4737.87165662533
1313,0.0
1078,2842722.9939751984
2,1, 7, 1, 0,14,10.00,20.00,Monday
7,25.919199208428463
8,79.0
9,2.2666666666666666
10,120.0
11,338.66666666666663
12,25.5
13,16.0
838,25.319294391841183
839,60.5586532737061
902,18.167640686035156
903,25.297468185424805
1051,5311.165554420692
1313,0.0
1078,3186699.332652415
2,1, 7, 1, 0,14,20.00,30.00,Monday
7,25.94770455150089
8,79.0
9,2.35
10,120.0
11,336.0
12,26.0
13,16.0
838,26.096810829496015
839,58.483932609911996
902,18.025022506713867
903,26.30358123779297
1051,1812.4385021857493
1313,0.0
1078,1087463.1013114494
2,1, 7, 1, 0,14,30.00,40.00,Monday
7,25.976209894573323
8,79.0
9,2.4333333333333336
10,120.0
11,318.0
12,22.833333333333336
13,16.0
838,26.350817728056096
839,58.668666036124236
902,16.738388061523438
903,26.358217239379883
1051,2855.814689268175
1313,0.0
1078,1713488.813560905
2,1, 7, 1, 0,14,40.00,50.00,Monday
7,26.004715237645755
8,79.0
9,2.516666666666667
10,120.0
11,300.0
12,19.666666666666668
13,16.0
838,26.149708013410052
839,60.380290717076235
902,22.085372924804688
903,26.119020462036133
1051,2980.742481191631
1313,0.0
1078,1788445.4887149788
2,1, 7, 1, 0,14,50.00,60.00,Monday
7,26.033220580718183
8,79.0
9,2.6
10,120.0
11,282.0
12,16.5
13,16.0
838,25.1832051544016
839,62.09483273283908
902,15.997398376464858
903,25.09312057495119
1051,7622.406291990858
1313,0.0
1078,4573443.775194513
2,1, 7, 1, 0,15, 0.00,10.00,Monday
7,25.930997055208536
8,79.83333333333334
9,2.85
10,125.0
11,264.0
12,13.333333333333332
13,20.0
838,26.083836986082034
839,59.418647368757554
902,23.25
903,26.40431785583496
1051,1624.729470630035
1313,0.0
1078,974837.682378021
2,1, 7, 1, 0,15,10.00,20.00,Monday
7,25.828773529698893
8,80.66666666666667
9,3.1
10,130.0
11,246.0
12,10.166666666666666
13,20.0
838,25.225896939128337
839,61.32395382925891
902,12.159701347351074
903,25.051773071289063
1051,7370.6758079055035
1313,0.0
1078,4422405.484743302
2,1, 7, 1, 0,15,20.00,30.00,Monday
7,25.726550004189242
8,81.5
9,3.3499999999999996
10,135.0
11,228.0
12,7.0
13,20.0
838,26.220999430455414
839,58.51804320615244
902,23.25
903,26.93863868713379
1051,908.4383224309738
1313,0.0
1078,545062.9934585844
2,1, 7, 1, 0,15,30.00,40.00,Monday
7,25.624326478679592
8,82.33333333333334
9,3.5999999999999996
10,140.0
11,234.0
12,10.0
13,20.0
838,26.024131618616757
839,59.94549848071012
902,16.504131317138672
903,26.011728286743164
1051,3557.7750427275914
1313,0.0
1078,2134665.025636555
2,1, 7, 1, 0,15,40.00,50.00,Monday
7,25.522102953169945
8,83.16666666666666
9,3.8499999999999996
10,145.0
11,240.0
12,13.0
13,20.0
838,25.723518199200978
839,61.90059511008553
902,16.692935943603516
903,25.705406188964844
1051,4083.209690058424
1313,0.0
1078,2449925.8140350543
2,1, 7, 1, 0,15,50.00,60.00,Monday
7,25.419879427660298
8,84.0
9,4.1
10,150.0
11,246.0
12,16.0
13,20.0
838,26.113441280980396
839,61.29447870741726
902,15.382659912109375
903,26.12218475341797
1051,2690.4870376944164
1313,0.0
1078,1614292.2226166502
2,1, 7, 1, 0,16, 0.00,10.00,Monday
7,25.309202649837044
8,84.83333333333333
9,4.1
10,151.66666666666666
11,252.0
12,19.0
13,20.0
838,25.605331420909742
839,63.40194044955723
902,22.15593719482422
903,25.572118759155273
1051,4403.78685818651
1313,0.0
1078,2642272.1149119055
2,1, 7, 1, 0,16,10.00,20.00,Monday
7,25.19852587201379
8,85.66666666666667
9,4.1
10,153.33333333333334
11,258.0
12,22.000000000000004
13,20.0
838,25.20366911074929
839,64.21069131873398
902,18.339147567749023
903,25.17951011657715
1051,5948.586201219665
1313,0.0
1078,3569151.7207317986
2,1, 7, 1, 0,16,20.00,30.00,Monday
7,25.08784909419053
8,86.5
9,4.1
10,155.0
11,264.0
12,25.0
13,20.0
838,26.09772940504638
839,61.53632447571093
902,18.879674911499023
903,26.400876998901367
1051,1534.429567637646
1313,0.0
1078,920657.7405825877
2,1, 7, 1, 0,16,30.00,40.00,Monday
7,24.977172316367273
8,87.33333333333333
9,4.1
10,156.66666666666666
11,240.0
12,20.833333333333336
13,20.0
838,25.726879873506533
839,62.485185225100075
902,16.069623947143555
903,25.70418357849121
1051,4374.285014325684
1313,0.0
1078,2624571.00859541
2,1, 7, 1, 0,16,40.00,50.00,Monday
7,24.866495538544015
8,88.16666666666667
9,4.1
10,158.33333333333334
11,216.00000000000003
12,16.666666666666668
13,20.0
838,26.173104228067665
839,61.32675024753999
902,20.235681533813477
903,26.179912567138672
1051,2349.200221700275
1313,0.0
1078,1409520.133020165
2,1, 7, 1, 0,16,50.00,60.00,Monday
7,24.75581876072076
8,89.0
9,4.1
10,160.0
11,192.0
12,12.5
13,20.0
838,25.894692363398846
839,62.86550390252974
902,22.986209869384766
903,25.838638305664063
1051,4167.130961257951
1313,0.0
1078,2500278.5767547707
2,1, 7, 1, 0,17, 0.00,10.00,Monday
7,24.846260672111516
8,89.83333333333334
9,3.933333333333333
10,156.66666666666666
11,168.0
12,8.333333333333332
13,20.0
838,26.463768073764577
839,61.58487466245299
902,23.062274932861328
903,26.611740112304688
1051,1356.634813312168
1313,0.0
1078,813980.8879873008
2,1, 7, 1, 0,17,10.00,20.00,Monday
7,24.936702583502274
8,90.66666666666667
9,3.7666666666666666
10,153.33333333333334
11,144.0
12,4.166666666666666
13,20.0
838,25.457671233550215
839,63.19150594806907
902,13.504854202270504
903,25.45103836059569
1051,6029.109292948836
1313,0.0
1078,3617465.5757693034
2,1, 7, 1, 0,17,20.00,30.00,Monday
7,25.027144494893026
8,91.5
9,3.5999999999999996
10,150.0
11,120.0
12,0.0
13,20.0
838,26.17342833766471
839,61.31022742696475
902,23.249999999999993
903,26.316228866577134
1051,1519.583164668426
1313,0.0
1078,911749.8988010559
2,1, 7, 1, 0,17,30.00,40.00,Monday
7,25.11758640628378
8,92.33333333333334
9,3.433333333333333
10,146.66666666666666
11,113.16666666666666
12,0.0
13,20.0
838,26.67362017900293
839,60.20083833976912
902,19.226747512817383
903,26.680240631103516
1051,1630.952571483243
1313,0.0
1078,978571.5428899458
2,1, 7, 1, 0,17,40.00,50.00,Monday
7,25.208028317674533
8,93.16666666666667
9,3.2666666666666666
10,143.33333333333334
11,106.33333333333334
12,0.0
13,20.0
838,25.230044986446188
839,62.996457280207956
902,22.110973358154297
903,24.950166702270508
1051,7885.255168987198
1313,0.0
1078,4731153.101392318
2,1, 7, 1, 0,17,50.00,60.00,Monday
7,25.29847022906529
8,94.0
9,3.1
10,140.0
11,99.5
12,0.0
13,20.0
838,25.96839761820924
839,60.82979572467698
902,23.250000000000018
903,26.846628189086935
1051,642.6946166662656
1313,0.0
1078,385616.7699997591
2,1, 7, 1, 0,18, 0.00,10.00,Monday
7,25.144693106933886
8,94.00000000000001
9,2.9333333333333336
10,141.66666666666666
11,92.66666666666666
12,0.0
13,20.0
838,25.846920311725274
839,62.44254199950476
902,21.091516494750977
903,25.72433090209961
1051,4400.027096485455
1313,0.0
1078,2640016.257891273
2,1, 7, 1, 0,18,10.00,20.00,Monday
7,24.990915984802488
8,94.0
9,2.7666666666666666
10,143.33333333333334
11,85.83333333333334
12,0.0
13,20.0
838,26.31004050233293
839,61.72062622329448
902,23.25
903,26.369197845458984
1051,1440.684920255462
1313,0.0
1078,864410.9521532771
2,1, 7, 1, 0,18,20.00,30.00,Monday
7,24.837138862671083
8,94.0
9,2.6
10,145.0
11,79.0
12,0.0
13,20.0
838,25.838809018400774
839,63.74310014613661
902,19.407262802124023
903,25.809919357299805
1051,3039.8200894923143
1313,0.0
1078,1823892.0536953888
2,1, 7, 1, 0,18,30.00,40.00,Monday
7,24.68336174053968
8,94.0
9,2.4333333333333336
10,146.66666666666666
11,68.00000000000001
12,0.0
13,20.0
838,25.97944293395761
839,63.32780889819526
902,20.773550033569336
903,25.990615844726563
1051,1607.8682133311613
1313,0.0
1078,964720.9279986968
2,1, 7, 1, 0,18,40.00,50.00,Monday
7,24.52958461840828
8,94.0
9,2.2666666666666666
10,148.33333333333334
11,57.0
12,0.0
13,20.0
838,25.95894107581168
839,63.55142887071412
902,22.816375732421875
903,25.95724105834961
1051,2477.2670650771865
1313,0.0
1078,1486360.239046312
2,1, 7, 1, 0,18,50.00,60.00,Monday
7,24.375807496276874
8,94.0
9,2.1
10,150.0
11,46.0
12,0.0
13,20.0
838,25.63355716887939
839,64.76650780737485
902,21.891071319580078
903,25.6165828704834
1051,3000.854216990838
1313,0.0
1078,1800512.5301945028