Program Version,EnergyPlus, Version 24.1.0-9d7789a3ac, YMD=2025.08.14 13:26
1,5,Environment Title[],Latitude[deg],Longitude[deg],Time Zone[],Elevation[m]
2,8,Day of Simulation[],Month[],Day of Month[],DST Indicator[1=yes 0=no],Hour[],StartMinute[],EndMinute[],DayType
3,5,Cumulative Day of Simulation[],Month[],Day of Month[],DST Indicator[1=yes 0=no],DayType  ! When Daily Meters Requested
4,2,Cumulative Days of Simulation[],Month[]  ! When Monthly Meters Requested
5,1,Cumulative Days of Simulation[] ! When Run Period Meters Requested
6,1,Calendar Year of Simulation[] ! When Annual Meters Requested
1078,1,Electricity:HVAC [J] !TimeStep
End of Data Dictionary
1,RUNPERIOD 1,  35.25, 136.93,   9.00,  17.00
2,1, 7, 1, 0, 1, 0.00,10.00,Monday
1078,339585.57117130636
2,1, 7, 1, 0, 1,10.00,20.00,Monday
1078,2810937.89532899
2,1, 7, 1, 0, 1,20.00,30.00,Monday
1078,2370645.7016766127
2,1, 7, 1, 0, 1,30.00,40.00,Monday
1078,2107724.615440682
2,1, 7, 1, 0, 1,40.00,50.00,Monday
1078,1719706.809596051
2,1, 7, 1, 0, 1,50.00,60.00,Monday
1078,1765129.4101623176
2,1, 7, 1, 0, 2, 0.00,10.00,Monday
1078,1660779.9654970914
2,1, 7, 1, 0, 2,10.00,20.00,Monday
1078,1613492.0547530008
2,1, 7, 1, 0, 2,20.00,30.00,Monday
1078,1578456.8184062087
2,1, 7, 1, 0, 2,30.00,40.00,Monday
1078,1550514.2758114324
2,1, 7, 1, 0, 2,40.00,50.00,Monday
1078,1529039.3180466795
2,1, 7, 1, 0, 2,50.00,60.00,Monday
1078,1512722.962155268
2,1, 7, 1, 0, 3, 0.00,10.00,Monday
1078,1499173.4776762133
2,1, 7, 1, 0, 3,10.00,20.00,Monday
1078,1488034.010265685
2,1, 7, 1, 0, 3,20.00,30.00,Monday
1078,1478694.0621352976
2,1, 7, 1, 0, 3,30.00,40.00,Monday
1078,1470646.0323000406
2,1, 7, 1, 0, 3,40.00,50.00,Monday
1078,1463500.2096275669
2,1, 7, 1, 0, 3,50.00,60.00,Monday
1078,1456962.0839232104
2,1, 7, 1, 0, 4, 0.00,10.00,Monday
1078,1455318.5026925586
2,1, 7, 1, 0, 4,10.00,20.00,Monday
1078,1455182.5485769785
2,1, 7, 1, 0, 4,20.00,30.00,Monday
1078,1455814.0925032173
2,1, 7, 1, 0, 4,30.00,40.00,Monday
1078,1456952.0283085932
2,1, 7, 1, 0, 4,40.00,50.00,Monday
1078,1458476.39036895
2,1, 7, 1, 0, 4,50.00,60.00,Monday
1078,1460313.687203275
2,1, 7, 1, 0, 5, 0.00,10.00,Monday
1078,1461021.265619816
2,1, 7, 1, 0, 5,10.00,20.00,Monday
1078,1461454.3744368772
2,1, 7, 1, 0, 5,20.00,30.00,Monday
1078,1461853.1629031831
2,1, 7, 1, 0, 5,30.00,40.00,Monday
1078,1461882.598156277
2,1, 7, 1, 0, 5,40.00,50.00,Monday
1078,1427030.3438898833
2,1, 7, 1, 0, 5,50.00,60.00,Monday
1078,1402169.3241056802
2,1, 7, 1, 0, 6, 0.00,10.00,Monday
1078,1378091.7107731742
2,1, 7, 1, 0, 6,10.00,20.00,Monday
1078,1359771.5074519888
2,1, 7, 1, 0, 6,20.00,30.00,Monday
1078,1337838.2273517165
2,1, 7, 1, 0, 6,30.00,40.00,Monday
1078,1287147.5660345852
2,1, 7, 1, 0, 6,40.00,50.00,Monday
1078,1219088.8776035646
2,1, 7, 1, 0, 6,50.00,60.00,Monday
1078,1143656.0518479957
2,1, 7, 1, 0, 7, 0.00,10.00,Monday
1078,878086.7248891762
2,1, 7, 1, 0, 7,10.00,20.00,Monday
1078,802805.0344922076
2,1, 7, 1, 0, 7,20.00,30.00,Monday
1078,762091.9897472806
2,1, 7, 1, 0, 7,30.00,40.00,Monday
1078,731430.7702470124
2,1, 7, 1, 0, 7,40.00,50.00,Monday
1078,698463.5002699578
2,1, 7, 1, 0, 7,50.00,60.00,Monday
1078,686889.4162784333
2,1, 7, 1, 0, 8, 0.00,10.00,Monday
1078,676123.772009884
2,1, 7, 1, 0, 8,10.00,20.00,Monday
1078,663842.917586734
2,1, 7, 1, 0, 8,20.00,30.00,Monday
1078,649918.9334587253
2,1, 7, 1, 0, 8,30.00,40.00,Monday
1078,634149.1753950833
2,1, 7, 1, 0, 8,40.00,50.00,Monday
1078,616986.3995113983
2,1, 7, 1, 0, 8,50.00,60.00,Monday
1078,597588.8224714759
2,1, 7, 1, 0, 9, 0.00,10.00,Monday
1078,344778.84383672394
2,1, 7, 1, 0, 9,10.00,20.00,Monday
1078,354972.4002808671
2,1, 7, 1, 0, 9,20.00,30.00,Monday
1078,491943.00040902564
2,1, 7, 1, 0, 9,30.00,40.00,Monday
1078,657126.2212472204
2,1, 7, 1, 0, 9,40.00,50.00,Monday
1078,1341869.4655015366
2,1, 7, 1, 0, 9,50.00,60.00,Monday
1078,1919184.3057408053
2,1, 7, 1, 0,10, 0.00,10.00,Monday
1078,1677124.5746481924
2,1, 7, 1, 0,10,10.00,20.00,Monday
1078,784757.5249259524
2,1, 7, 1, 0,10,20.00,30.00,Monday
1078,1848893.8751696795
2,1, 7, 1, 0,10,30.00,40.00,Monday
1078,5369603.225474538
2,1, 7, 1, 0,10,40.00,50.00,Monday
1078,1804012.8335785065
2,1, 7, 1, 0,10,50.00,60.00,Monday
1078,3908555.874039444
2,1, 7, 1, 0,11, 0.00,10.00,Monday
1078,2528918.724578369
2,1, 7, 1, 0,11,10.00,20.00,Monday
1078,4561305.888057527
2,1, 7, 1, 0,11,20.00,30.00,Monday
1078,2624284.2904214114
2,1, 7, 1, 0,11,30.00,40.00,Monday
1078,4730731.88660802
2,1, 7, 1, 0,11,40.00,50.00,Monday
1078,2536055.879404214
2,1, 7, 1, 0,11,50.00,60.00,Monday
1078,5553571.82265953
2,1, 7, 1, 0,12, 0.00,10.00,Monday
1078,2528580.1426134584
2,1, 7, 1, 0,12,10.00,20.00,Monday
1078,2477482.211869158
2,1, 7, 1, 0,12,20.00,30.00,Monday
1078,3901616.9326797887
2,1, 7, 1, 0,12,30.00,40.00,Monday
1078,5829820.827478308
2,1, 7, 1, 0,12,40.00,50.00,Monday
1078,2423954.0390312877
2,1, 7, 1, 0,12,50.00,60.00,Monday
1078,5468997.874925972
2,1, 7, 1, 0,13, 0.00,10.00,Monday
1078,768387.3365775382
2,1, 7, 1, 0,13,10.00,20.00,Monday
1078,3401320.9566592197
2,1, 7, 1, 0,13,20.00,30.00,Monday
1078,1220418.238579088
2,1, 7, 1, 0,13,30.00,40.00,Monday
1078,3068156.5946499957
2,1, 7, 1, 0,13,40.00,50.00,Monday
1078,3879875.913378309
2,1, 7, 1, 0,13,50.00,60.00,Monday
1078,1991779.8696052344
2,1, 7, 1, 0,14, 0.00,10.00,Monday
1078,5299204.604624035
2,1, 7, 1, 0,14,10.00,20.00,Monday
1078,2109604.57360793
2,1, 7, 1, 0,14,20.00,30.00,Monday
1078,3129249.784658934
2,1, 7, 1, 0,14,30.00,40.00,Monday
1078,4508217.936651616
2,1, 7, 1, 0,14,40.00,50.00,Monday
1078,1129414.2078853636
End of Data
 Number of Records Written=          83
