Program Version,EnergyPlus, Version 24.1.0-9d7789a3ac, YMD=2025.08.14 13:26
1,5,Environment Title[],Latitude[deg],Longitude[deg],Time Zone[],Elevation[m]
2,8,Day of Simulation[],Month[],Day of Month[],DST Indicator[1=yes 0=no],Hour[],StartMinute[],EndMinute[],DayType
3,5,Cumulative Day of Simulation[],Month[],Day of Month[],DST Indicator[1=yes 0=no],DayType  ! When Daily Report Variables Requested
4,2,Cumulative Days of Simulation[],Month[]  ! When Monthly Report Variables Requested
5,1,Cumulative Days of Simulation[] ! When Run Period Report Variables Requested
6,1,Calendar Year of Simulation[] ! When Annual Report Variables Requested
7,1,Environment,Site Outdoor Air Drybulb Temperature [C] !TimeStep
8,1,Environment,Site Outdoor Air Relative Humidity [%] !TimeStep
9,1,Environment,Site Wind Speed [m/s] !TimeStep
10,1,Environment,Site Wind Direction [deg] !TimeStep
11,1,Environment,Site Diffuse Solar Radiation Rate per Area [W/m2] !TimeStep
12,1,Environment,Site Direct Solar Radiation Rate per Area [W/m2] !TimeStep
13,1,SPACE5-1,Zone People Occupant Count [] !TimeStep
838,1,SPACE5-1,Zone Air Temperature [C] !TimeStep
839,1,SPACE5-1,Zone Air Relative Humidity [%] !TimeStep
902,1,SPACE5-1,Zone Thermostat Heating Setpoint Temperature [C] !TimeStep
903,1,SPACE5-1,Zone Thermostat Cooling Setpoint Temperature [C] !TimeStep
1051,1,Whole Building,Facility Total HVAC Electricity Demand Rate [W] !TimeStep
1313,1,Site,Environmental Impact Total CO2 Emissions Carbon Equivalent Mass [kg] !TimeStep
1078,1,Electricity:HVAC [J] !TimeStep
End of Data Dictionary
1,RUNPERIOD 1,  35.25, 136.93,   9.00,  17.00
2,1, 7, 1, 0, 1, 0.00,10.00,Monday
7,26.690943139249605
8,88.0
9,2.3333333333333335
10,195.0
11,0.0
12,0.0
13,0.0
838,21.816060511625615
839,50.69778442938835
902,12.8
903,40.0
1051,565.9759519521773
1313,0.0
1078,339585.57117130636
2,1, 7, 1, 0, 1,10.00,20.00,Monday
7,26.43133458314533
8,87.0
9,2.066666666666667
10,210.0
11,0.0
12,0.0
13,0.0
838,22.338179216835226
839,48.77339701180189
902,23.249999999999993
903,28.376502990722642
1051,4684.896492214983
1313,0.0
1078,2810937.89532899
2,1, 7, 1, 0, 1,20.00,30.00,Monday
7,26.171726027041053
8,86.0
9,1.8
10,225.0
11,0.0
12,0.0
13,0.0
838,22.985837412113845
839,46.39361441946595
902,23.249999999999993
903,26.326305389404283
1051,3951.076169461019
1313,0.0
1078,2370645.7016766127
2,1, 7, 1, 0, 1,30.00,40.00,Monday
7,25.912117470936778
8,85.0
9,1.5333333333333334
10,240.0
11,0.0
12,0.0
13,0.0
838,23.2467492000494
839,45.152142777727626
902,23.25
903,26.585474014282227
1051,3512.874359067803
1313,0.0
1078,2107724.615440682
2,1, 7, 1, 0, 1,40.00,50.00,Monday
7,25.652508914832502
8,84.0
9,1.2666666666666666
10,255.0
11,0.0
12,0.0
13,0.0
838,23.250298415158774
839,44.65242899840989
902,23.25
903,26.894224166870117
1051,2866.1780159934183
1313,0.0
1078,1719706.809596051
2,1, 7, 1, 0, 1,50.00,60.00,Monday
7,25.392900358728227
8,83.0
9,1.0
10,270.0
11,0.0
12,0.0
13,0.0
838,23.25044343859057
839,44.18340898846745
902,23.25
903,26.380949020385742
1051,2941.882350270529
1313,0.0
1078,1765129.4101623176
2,1, 7, 1, 0, 2, 0.00,10.00,Monday
7,25.44400800278612
8,83.5
9,1.0
10,295.0
11,0.0
12,0.0
13,0.0
838,23.250380177389168
839,43.72968491105202
902,23.25
903,28.05316925048828
1051,2767.966609161819
1313,0.0
1078,1660779.9654970914
2,1, 7, 1, 0, 2,10.00,20.00,Monday
7,25.49511564684401
8,84.0
9,1.0
10,320.0
11,0.0
12,0.0
13,0.0
838,23.250355479136278
839,43.2863629888318
902,23.25
903,27.22432518005371
1051,2689.153424588335
1313,0.0
1078,1613492.0547530008
2,1, 7, 1, 0, 2,20.00,30.00,Monday
7,25.5462232909019
8,84.5
9,1.0
10,345.0
11,0.0
12,0.0
13,0.0
838,23.250338373407402
839,42.85130359201018
902,23.25
903,27.046581268310547
1051,2630.7613640103477
1313,0.0
1078,1578456.8184062087
2,1, 7, 1, 0, 2,30.00,40.00,Monday
7,25.59733093495979
8,85.0
9,1.0
10,10.0
11,0.0
12,0.0
13,0.0
838,23.250324921096862
839,42.42336316321623
902,23.25
903,27.765443801879883
1051,2584.1904596857207
1313,0.0
1078,1550514.2758114324
2,1, 7, 1, 0, 2,40.00,50.00,Monday
7,25.64843857901768
8,85.5
9,1.0
10,35.0
11,0.0
12,0.0
13,0.0
838,23.25031415866585
839,42.00193755789087
902,23.25
903,26.831552505493164
1051,2548.3988634111324
1313,0.0
1078,1529039.3180466795
2,1, 7, 1, 0, 2,50.00,60.00,Monday
7,25.69954622307557
8,86.0
9,1.0
10,60.0
11,0.0
12,0.0
13,0.0
838,23.2503052993429
839,41.586715078550355
902,23.25
903,27.23969078063965
1051,2521.204936925447
1313,0.0
1078,1512722.962155268
2,1, 7, 1, 0, 3, 0.00,10.00,Monday
7,25.765159316000982
8,86.33333333333334
9,1.0
10,73.33333333333333
11,0.0
12,0.0
13,0.0
838,23.250297766874372
839,41.17756295367239
902,23.25
903,27.77434539794922
1051,2498.6224627936886
1313,0.0
1078,1499173.4776762133
2,1, 7, 1, 0, 3,10.00,20.00,Monday
7,25.8307724089264
8,86.66666666666667
9,1.0
10,86.66666666666666
11,0.0
12,0.0
13,0.0
838,23.25029120164038
839,40.77442178097731
902,23.25
903,27.314714431762695
1051,2480.0566837761417
1313,0.0
1078,1488034.010265685
2,1, 7, 1, 0, 3,20.00,30.00,Monday
7,25.89638550185181
8,87.0
9,1.0
10,100.0
11,0.0
12,0.0
13,0.0
838,23.250285374434153
839,40.37723158274629
902,23.25
903,27.67148780822754
1051,2464.490103558829
1313,0.0
1078,1478694.0621352976
2,1, 7, 1, 0, 3,30.00,40.00,Monday
7,25.96199859477722
8,87.33333333333334
9,1.0
10,113.33333333333333
11,0.0
12,0.0
13,0.0
838,23.25028011399747
839,39.985911118413725
902,23.25
903,27.564788818359375
1051,2451.0767205000675
1313,0.0
1078,1470646.0323000406
2,1, 7, 1, 0, 3,40.00,50.00,Monday
7,26.027611687702635
8,87.66666666666667
9,1.0
10,126.66666666666667
11,0.0
12,0.0
13,0.0
838,23.25027528833529
839,39.60035597992315
902,23.25
903,28.106189727783203
1051,2439.167016045945
1313,0.0
1078,1463500.2096275669
2,1, 7, 1, 0, 3,50.00,60.00,Monday
7,26.09322478062805
8,88.0
9,1.0
10,140.0
11,0.0
12,0.0
13,0.0
838,23.250270795594197
839,39.22045826150992
902,23.25
903,27.735244750976563
1051,2428.2701398720174
1313,0.0
1078,1456962.0839232104
2,1, 7, 1, 0, 4, 0.00,10.00,Monday
7,26.06790812054613
8,88.33333333333334
9,0.9166666666666667
10,140.0
11,0.0
12,0.0
13,0.0
838,23.250266616858305
839,38.84605701839361
902,23.25
903,27.581621170043945
1051,2425.530837820931
1313,0.0
1078,1455318.5026925586
2,1, 7, 1, 0, 4,10.00,20.00,Monday
7,26.042591460464205
8,88.66666666666667
9,0.8333333333333334
10,140.0
11,0.0
12,0.0
13,0.0
838,23.25026266048764
839,38.47701075073683
902,23.25
903,28.080366134643555
1051,2425.3042476282976
1313,0.0
1078,1455182.5485769785
2,1, 7, 1, 0, 4,20.00,30.00,Monday
7,26.017274800382282
8,89.0
9,0.75
10,140.0
11,0.0
12,0.0
13,0.0
838,23.25025889084214
839,38.11319684939215
902,23.25
903,27.505512237548828
1051,2426.3568208386955
1313,0.0
1078,1455814.0925032173
2,1, 7, 1, 0, 4,30.00,40.00,Monday
7,25.99195814030036
8,89.33333333333334
9,0.6666666666666667
10,140.0
11,0.0
12,0.0
13,0.0
838,23.25025527858121
839,37.75450461739615
902,23.25
903,27.246198654174805
1051,2428.253380514322
1313,0.0
1078,1456952.0283085932
2,1, 7, 1, 0, 4,40.00,50.00,Monday
7,25.96664148021844
8,89.66666666666666
9,0.5833333333333333
10,140.0
11,0.0
12,0.0
13,0.0
838,23.250251799226636
839,37.4008262038652
902,23.25
903,28.759262084960938
1051,2430.79398394825
1313,0.0
1078,1458476.39036895
2,1, 7, 1, 0, 4,50.00,60.00,Monday
7,25.941324820136515
8,90.0
9,0.5
10,140.0
11,0.0
12,0.0
13,0.0
838,23.25024843236133
839,37.05206367658047
902,23.25
903,27.73978042602539
1051,2433.8561453387915
1313,0.0
1078,1460313.687203275
2,1, 7, 1, 0, 5, 0.00,10.00,Monday
7,25.932929276730558
8,90.0
9,0.5833333333333334
10,125.0
11,0.0
12,0.0
13,0.0
838,23.250245241132436
839,36.70804949489707
902,23.25
903,27.193830490112305
1051,2435.0354426996932
1313,0.0
1078,1461021.265619816
2,1, 7, 1, 0, 5,10.00,20.00,Monday
7,25.924533733324598
8,90.0
9,0.6666666666666667
10,110.0
11,0.0
12,0.0
13,0.0
838,23.25024212871371
839,36.368658418349035
902,23.25
903,28.358346939086914
1051,2435.7572907281287
1313,0.0
1078,1461454.3744368772
2,1, 7, 1, 0, 5,20.00,30.00,Monday
7,25.916138189918637
8,90.0
9,0.75
10,95.0
11,0.0
12,0.0
13,0.0
838,23.250239078134943
839,36.03379190813284
902,23.25
903,28.027942657470703
1051,2436.4219381719718
1313,0.0
1078,1461853.1629031831
2,1, 7, 1, 0, 5,30.00,40.00,Monday
7,25.90774264651268
8,90.0
9,0.8333333333333333
10,80.0
11,0.0
12,0.0
13,0.0
838,23.250235991338485
839,35.70337506657694
902,23.25
903,27.258106231689453
1051,2436.4709969271285
1313,0.0
1078,1461882.598156277
2,1, 7, 1, 0, 5,40.00,50.00,Monday
7,25.89934710310672
8,90.0
9,0.9166666666666667
10,65.0
11,9.33333333333333
12,0.0
13,0.0
838,23.250233132444837
839,35.377328443350834
902,23.25
903,28.01712417602539
1051,2378.3839064831386
1313,0.0
1078,1427030.3438898833
2,1, 7, 1, 0, 5,50.00,60.00,Monday
7,25.89095155970076
8,90.0
9,1.0
10,50.0
11,13.5
12,0.0
13,0.0
838,23.25022998043835
839,35.05555530612157
902,23.25
903,28.055065155029297
1051,2336.948873509467
1313,0.0
1078,1402169.3241056802
2,1, 7, 1, 0, 6, 0.00,10.00,Monday
7,25.865587858325757
8,90.16666666666667
9,1.0
10,48.333333333333336
11,17.666666666666668
12,0.0
13,0.0
838,23.250226605548907
839,34.73798354379434
902,23.25
903,26.9158878326416
1051,2296.8195179552904
1313,0.0
1078,1378091.7107731742
2,1, 7, 1, 0, 6,10.00,20.00,Monday
7,25.840224156950757
8,90.33333333333334
9,1.0
10,46.666666666666664
11,21.833333333333336
12,0.0
13,0.0
838,23.250223084058174
839,34.424534732682524
902,23.25
903,27.025365829467773
1051,2266.285845753315
1313,0.0
1078,1359771.5074519888
2,1, 7, 1, 0, 6,20.00,30.00,Monday
7,25.814860455575754
8,90.5
9,1.0
10,45.0
11,26.0
12,0.0
13,0.0
838,23.25021945456148
839,34.11510956081192
902,23.25
903,27.661102294921875
1051,2229.7303789195275
1313,0.0
1078,1337838.2273517165
2,1, 7, 1, 0, 6,30.00,40.00,Monday
7,25.789496754200748
8,90.66666666666667
9,1.0
10,43.333333333333336
11,39.33333333333333
12,0.0
13,0.0
838,23.250215661684663
839,33.80960154862179
902,23.25
903,28.262142181396484
1051,2145.2459433909753
1313,0.0
1078,1287147.5660345852
2,1, 7, 1, 0, 6,40.00,50.00,Monday
7,25.76413305282575
8,90.83333333333334
9,1.0
10,41.666666666666664
11,52.666666666666664
12,0.0
13,0.0
838,23.25021149364832
839,33.507840935140926
902,23.25
903,27.291290283203125
1051,2031.8147960059412
1313,0.0
1078,1219088.8776035646
2,1, 7, 1, 0, 6,50.00,60.00,Monday
7,25.738769351450745
8,91.0
9,1.0
10,40.0
11,66.0
12,0.0
13,0.0
838,23.250206908931503
839,33.20960465091184
902,23.25
903,28.05858612060547
1051,1906.0934197466595
1313,0.0
1078,1143656.0518479957
2,1, 7, 1, 0, 7, 0.00,10.00,Monday
7,25.95940131999344
8,89.83333333333334
9,1.0
10,58.33333333333333
11,79.33333333333334
12,0.0
13,0.0
838,23.24916605480425
839,33.65110228301917
902,23.25
903,27.092355728149414
1051,1463.4778748152937
1313,0.0
1078,878086.7248891762
2,1, 7, 1, 0, 7,10.00,20.00,Monday
7,26.18003328853613
8,88.66666666666667
9,1.0
10,76.66666666666666
11,92.66666666666667
12,0.0
13,0.0
838,23.249195373359623
839,34.51263304937351
902,23.25
903,26.837629318237305
1051,1338.008390820346
1313,0.0
1078,802805.0344922076
2,1, 7, 1, 0, 7,20.00,30.00,Monday
7,26.400665257078824
8,87.5
9,1.0
10,95.0
11,106.0
12,0.0
13,0.0
838,23.24927229553411
839,35.46543123980686
902,23.25
903,26.81187629699707
1051,1270.1533162454677
1313,0.0
1078,762091.9897472806
2,1, 7, 1, 0, 7,30.00,40.00,Monday
7,26.621297225621518
8,86.33333333333334
9,1.0
10,113.33333333333333
11,119.16666666666667
12,1.1666666666666665
13,0.0
838,23.249344704772415
839,36.36419243571153
902,23.25
903,27.966758728027344
1051,1219.0512837450206
1313,0.0
1078,731430.7702470124
2,1, 7, 1, 0, 7,40.00,50.00,Monday
7,26.84192919416421
8,85.16666666666666
9,1.0
10,131.66666666666669
11,132.33333333333331
12,2.333333333333333
13,0.0
838,23.249406956753788
839,37.18524457792427
902,23.25
903,27.938093185424805
1051,1164.105833783263
1313,0.0
1078,698463.5002699578
2,1, 7, 1, 0, 7,50.00,60.00,Monday
7,27.062561162706903
8,84.0
9,1.0
10,150.0
11,145.5
12,3.5
13,0.0
838,23.249460385235494
839,37.946388548826434
902,23.25
903,27.38591766357422
1051,1144.8156937973888
1313,0.0
1078,686889.4162784333
2,1, 7, 1, 0, 8, 0.00,10.00,Monday
7,27.20239743066898
8,83.16666666666667
9,0.9166666666666667
10,150.0
11,158.66666666666669
12,4.666666666666667
13,0.0
838,23.249508693131908
839,38.66728346044688
902,23.25
903,28.054481506347656
1051,1126.8729533498067
1313,0.0
1078,676123.772009884
2,1, 7, 1, 0, 8,10.00,20.00,Monday
7,27.342233698631063
8,82.33333333333334
9,0.8333333333333334
10,150.0
11,171.83333333333334
12,5.833333333333334
13,0.0
838,23.249555184131648
839,39.35912071648888
902,23.25
903,26.97542953491211
1051,1106.4048626445567
1313,0.0
1078,663842.917586734
2,1, 7, 1, 0, 8,20.00,30.00,Monday
7,27.482069966593137
8,81.5
9,0.75
10,150.0
11,185.0
12,7.0
13,0.0
838,23.24960164104391
839,40.02628585522031
902,23.25
903,28.201351165771484
1051,1083.198222431209
1313,0.0
1078,649918.9334587253
2,1, 7, 1, 0, 8,30.00,40.00,Monday
7,27.62190623455522
8,80.66666666666667
9,0.6666666666666667
10,150.0
11,200.5
12,8.666666666666666
13,0.0
838,23.249648829159334
839,40.66990032231622
902,23.25
903,28.505151748657227
1051,1056.9152923251388
1313,0.0
1078,634149.1753950833
2,1, 7, 1, 0, 8,40.00,50.00,Monday
7,27.761742502517293
8,79.83333333333334
9,0.5833333333333333
10,150.0
11,216.0
12,10.333333333333332
13,0.0
838,23.249696047914885
839,41.28999491385971
902,23.25
903,28.055173873901367
1051,1028.3106658523304
1313,0.0
1078,616986.3995113983
2,1, 7, 1, 0, 8,50.00,60.00,Monday
7,27.901578770479375
8,79.0
9,0.5
10,150.0
11,231.5
12,12.0
13,0.0
838,23.249744124898626
839,41.886551872692124
902,23.25
903,26.751962661743164
1051,995.9813707857932
1313,0.0
1078,597588.8224714759
2,1, 7, 1, 0, 9, 0.00,10.00,Monday
7,27.974865232299543
8,78.16666666666667
9,0.6666666666666667
10,173.33333333333334
11,247.0
12,13.666666666666668
13,20.0
838,23.998390137997493
839,41.42877193047894
902,23.25
903,27.727495193481445
1051,574.63140639454
1313,0.0
1078,344778.84383672394
2,1, 7, 1, 0, 9,10.00,20.00,Monday
7,28.04815169411971
8,77.33333333333334
9,0.8333333333333334
10,196.66666666666666
11,262.5
12,15.333333333333334
13,20.0
838,24.724134198263663
839,41.14686214760648
902,19.55729103088379
903,27.427541732788086
1051,591.6206671347785
1313,0.0
1078,354972.4002808671
2,1, 7, 1, 0, 9,20.00,30.00,Monday
7,28.12143815593987
8,76.5
9,1.0
10,220.0
11,278.0
12,17.0
13,20.0
838,25.325625521395764
839,41.19115704534867
902,19.29464149475097
903,26.785058975219712
1051,819.905000681709
1313,0.0
1078,491943.00040902564
2,1, 7, 1, 0, 9,30.00,40.00,Monday
7,28.194724617760038
8,75.66666666666666
9,1.1666666666666667
10,243.33333333333331
11,284.0
12,17.5
13,20.0
838,25.82989467679389
839,41.53732085905497
902,13.581675529479984
903,26.789028167724616
1051,1095.2103687453678
1313,0.0
1078,657126.2212472204
2,1, 7, 1, 0, 9,40.00,50.00,Monday
7,28.268011079580205
8,74.83333333333334
9,1.3333333333333333
10,266.6666666666667
11,290.0
12,18.0
13,20.0
838,25.940508603871656
839,43.231137904255526
902,15.972188949584972
903,25.941017150878928
1051,2236.4491091692294
1313,0.0
1078,1341869.4655015366
2,1, 7, 1, 0, 9,50.00,60.00,Monday
7,28.34129754140037
8,74.0
9,1.5
10,290.0
11,296.0
12,18.5
13,20.0
838,25.35386983240275
839,48.305462994247605
902,13.626352310180664
903,25.319316864013672
1051,3198.6405095680084
1313,0.0
1078,1919184.3057408053
2,1, 7, 1, 0,10, 0.00,10.00,Monday
7,28.48301127353026
8,74.0
9,1.5
10,290.0
11,302.0
12,19.0
13,20.0
838,25.504978401892714
839,51.77826102972707
902,15.161872863769531
903,25.52256202697754
1051,2795.207624413654
1313,0.0
1078,1677124.5746481924
2,1, 7, 1, 0,10,10.00,20.00,Monday
7,28.624725005660153
8,74.0
9,1.5
10,290.0
11,308.0
12,19.5
13,20.0
838,26.47567850458094
839,50.30835007176475
902,12.000000000000002
903,27.001337051391605
1051,1307.929208209921
1313,0.0
1078,784757.5249259524
2,1, 7, 1, 0,10,20.00,30.00,Monday
7,28.76643873779004
8,74.0
9,1.5
10,290.0
11,314.0
12,20.0
13,20.0
838,26.49264224924368
839,52.52996446537155
902,13.168045997619629
903,26.492910385131836
1051,3081.4897919494656
1313,0.0
1078,1848893.8751696795
2,1, 7, 1, 0,10,30.00,40.00,Monday
7,28.908152469919933
8,74.0
9,1.5
10,290.0
11,323.3333333333333
12,22.666666666666664
13,20.0
838,25.402644342020956
839,55.724546838381855
902,15.701690673828125
903,25.254640579223633
1051,8949.33870912423
1313,0.0
1078,5369603.225474538
2,1, 7, 1, 0,10,40.00,50.00,Monday
7,29.04986620204982
8,74.0
9,1.5
10,290.0
11,332.66666666666663
12,25.333333333333332
13,20.0
838,25.637913797910855
839,55.979039760391046
902,16.583839416503906
903,25.662565231323242
1051,3006.6880559641777
1313,0.0
1078,1804012.8335785065
2,1, 7, 1, 0,10,50.00,60.00,Monday
7,29.19157993417971
8,74.0
9,1.5
10,290.0
11,342.0
12,28.0
13,20.0
838,25.624345046375844
839,57.40882947991632
902,12.0
903,25.622371673583984
1051,6514.25979006574
1313,0.0
1078,3908555.874039444
2,1, 7, 1, 0,11, 0.00,10.00,Monday
7,29.06804060996717
8,74.0
9,1.6833333333333333
10,265.0
11,351.3333333333333
12,30.666666666666668
13,20.0
838,25.851379102722603
839,58.50448134764819
902,13.216950416564941
903,25.87497901916504
1051,4214.8645409639485
1313,0.0
1078,2528918.724578369
2,1, 7, 1, 0,11,10.00,20.00,Monday
7,28.94450128575463
8,74.0
9,1.8666666666666667
10,240.0
11,360.6666666666667
12,33.333333333333336
13,20.0
838,25.583830742227757
839,59.83599611843089
902,16.180728912353516
903,25.547021865844727
1051,7602.176480095878
1313,0.0
1078,4561305.888057527
2,1, 7, 1, 0,11,20.00,30.00,Monday
7,28.820961961542082
8,74.0
9,2.05
10,215.0
11,370.0
12,36.0
13,20.0
838,26.04933000371922
839,59.11514249443218
902,14.162408828735352
903,26.057130813598633
1051,4373.8071507023515
1313,0.0
1078,2624284.2904214114
2,1, 7, 1, 0,11,30.00,40.00,Monday
7,28.697422637329545
8,74.0
9,2.2333333333333334
10,190.0
11,375.83333333333337
12,37.0
13,20.0
838,25.79129046861568
839,59.79638040903853
902,14.635242462158203
903,25.748430252075195
1051,7884.553144346701
1313,0.0
1078,4730731.88660802
2,1, 7, 1, 0,11,40.00,50.00,Monday
7,28.573883313116998
8,74.0
9,2.416666666666667
10,165.0
11,381.66666666666663
12,38.0
13,20.0
838,26.193041839964557
839,59.1722213363825
902,16.31854248046875
903,26.200908660888672
1051,4226.7597990070235
1313,0.0
1078,2536055.879404214
2,1, 7, 1, 0,11,50.00,60.00,Monday
7,28.450343988904457
8,74.0
9,2.6
10,140.0
11,387.5
12,39.0
13,20.0
838,25.46791876215049
839,60.2494317269893
902,15.99394702911378
903,25.417402267456076
1051,9255.95303776589
1313,0.0
1078,5553571.82265953
2,1, 7, 1, 0,12, 0.00,10.00,Monday
7,28.433306327063267
8,74.83333333333334
9,2.416666666666667
10,136.66666666666666
11,393.33333333333337
12,40.0
13,16.0
838,25.64918929777289
839,59.29062228799017
902,17.175844192504883
903,25.668821334838867
1051,4214.300237689097
1313,0.0
1078,2528580.1426134584
2,1, 7, 1, 0,12,10.00,20.00,Monday
7,28.416268665222077
8,75.66666666666667
9,2.2333333333333334
10,133.33333333333334
11,399.16666666666663
12,41.0
13,16.0
838,26.09502086573849
839,58.386017661938936
902,14.420442581176758
903,26.10400390625
1051,4129.13701978193
1313,0.0
1078,2477482.211869158
2,1, 7, 1, 0,12,20.00,30.00,Monday
7,28.399231003380883
8,76.5
9,2.05
10,130.0
11,405.0
12,42.0
13,16.0
838,25.880049941442284
839,59.40842533461599
902,12.903985977172852
903,25.84353256225586
1051,6502.694887799647
1313,0.0
1078,3901616.9326797887
2,1, 7, 1, 0,12,30.00,40.00,Monday
7,28.382193341539697
8,77.33333333333333
9,1.8666666666666667
10,126.66666666666667
11,396.16666666666663
12,38.833333333333336
13,16.0
838,25.219028020255607
839,60.080690315403274
902,17.394422531127944
903,25.176212310791037
1051,9716.368045797186
1313,0.0
1078,5829820.827478308
2,1, 7, 1, 0,12,40.00,50.00,Monday
7,28.365155679698503
8,78.16666666666667
9,1.6833333333333331
10,123.33333333333333
11,387.33333333333337
12,35.66666666666667
13,16.0
838,25.884639778465612
839,57.58101185874124
902,18.15051651000978
903,25.9754161834717
1051,4039.923398385483
1313,0.0
1078,2423954.0390312877
2,1, 7, 1, 0,12,50.00,60.00,Monday
7,28.348118017857313
8,79.0
9,1.5
10,120.0
11,378.5
12,32.5
13,16.0
838,25.206355936811303
839,59.410200259825274
902,12.00000000000001
903,25.15940856933596
1051,9114.99645820996
1313,0.0
1078,5468997.874925972
2,1, 7, 1, 0,13, 0.00,10.00,Monday
7,28.424440626241065
8,79.00000000000001
9,1.6
10,120.0
11,369.66666666666663
12,29.333333333333332
13,8.0
838,26.10950563737407
839,56.52933984962411
902,23.25
903,27.000049591064457
1051,1280.6455609625636
1313,0.0
1078,768387.3365775382
2,1, 7, 1, 0,13,10.00,20.00,Monday
7,28.500763234624824
8,79.0
9,1.7
10,120.0
11,360.83333333333337
12,26.166666666666664
13,8.0
838,25.814314468409066
839,57.072442824815795
902,12.09356689453125
903,25.799575805664063
1051,5668.8682610987
1313,0.0
1078,3401320.9566592197
2,1, 7, 1, 0,13,20.00,30.00,Monday
7,28.577085843008575
8,79.0
9,1.8
10,120.0
11,352.0
12,23.0
13,8.0
838,26.418900452170508
839,55.39351425731501
902,12.492517471313473
903,26.58621597290038
1051,2034.0303976318125
1313,0.0
1078,1220418.238579088
2,1, 7, 1, 0,13,30.00,40.00,Monday
7,28.65340845139233
8,79.0
9,1.9
10,120.0
11,349.33333333333337
12,23.5
13,8.0
838,25.97515668542368
839,57.01854851175143
902,17.89018630981446
903,25.949300765991218
1051,5113.594324416661
1313,0.0
1078,3068156.5946499957
2,1, 7, 1, 0,13,40.00,50.00,Monday
7,28.729731059776086
8,79.0
9,2.0
10,120.0
11,346.66666666666663
12,24.0
13,8.0
838,25.508065553392935
839,58.7980141395801
902,12.233420372009277
903,25.481830596923828
1051,6466.459855630515
1313,0.0
1078,3879875.913378309
2,1, 7, 1, 0,13,50.00,60.00,Monday
7,28.80605366815984
8,79.0
9,2.1
10,120.0
11,344.0
12,24.5
13,8.0
838,26.04419638622016
839,57.67743622191199
902,13.7610502243042
903,26.05521011352539
1051,3319.633116008724
1313,0.0
1078,1991779.8696052344
2,1, 7, 1, 0,14, 0.00,10.00,Monday
7,28.76142669586974
8,79.00000000000001
9,2.1833333333333336
10,120.0
11,341.33333333333337
12,25.0
13,16.0
838,25.29587191815135
839,59.467678818208384
902,14.472542762756348
903,25.21319580078125
1051,8832.00767437339
1313,0.0
1078,5299204.604624035
2,1, 7, 1, 0,14,10.00,20.00,Monday
7,28.716799723579637
8,79.0
9,2.2666666666666666
10,120.0
11,338.66666666666663
12,25.5
13,16.0
838,25.89565893848239
839,58.3589483657812
902,20.91316604614257
903,25.98218154907225
1051,3516.0076226798824
1313,0.0
1078,2109604.57360793
2,1, 7, 1, 0,14,20.00,30.00,Monday
7,28.672172751289533
8,79.0
9,2.35
10,120.0
11,336.0
12,26.0
13,16.0
838,26.008196345545485
839,59.57775430919919
902,12.94117259979248
903,26.0129451751709
1051,5215.41630776489
1313,0.0
1078,3129249.784658934
2,1, 7, 1, 0,14,30.00,40.00,Monday
7,28.627545778999433
8,79.0
9,2.4333333333333336
10,120.0
11,318.0
12,22.833333333333336
13,16.0
838,25.434094324661082
839,61.090281569793774
902,12.000000000000004
903,25.399763107299812
1051,7513.69656108603
1313,0.0
1078,4508217.936651616
2,1, 7, 1, 0,14,40.00,50.00,Monday
7,28.582918806709326
8,79.0
9,2.516666666666667
10,120.0
11,300.0
12,19.666666666666668
13,16.0
838,26.29570272826785
839,58.660204904183225
902,21.624256134033203
903,26.60608673095703
1051,1882.3570131422728
1313,0.0
1078,1129414.2078853636
End of Data
 Number of Records Written=        1162
