Program Version,EnergyPlus, Version 24.1.0-9d7789a3ac, YMD=2025.08.14 15:39
1,5,Environment Title[],Latitude[deg],Longitude[deg],Time Zone[],Elevation[m]
2,8,Day of Simulation[],Month[],Day of Month[],DST Indicator[1=yes 0=no],Hour[],StartMinute[],EndMinute[],DayType
3,5,Cumulative Day of Simulation[],Month[],Day of Month[],DST Indicator[1=yes 0=no],DayType  ! When Daily Report Variables Requested
4,2,Cumulative Days of Simulation[],Month[]  ! When Monthly Report Variables Requested
5,1,Cumulative Days of Simulation[] ! When Run Period Report Variables Requested
6,1,Calendar Year of Simulation[] ! When Annual Report Variables Requested
7,1,Environment,Site Outdoor Air Drybulb Temperature [C] !TimeStep
8,1,Environment,Site Outdoor Air Relative Humidity [%] !TimeStep
9,1,Environment,Site Wind Speed [m/s] !TimeStep
10,1,Environment,Site Wind Direction [deg] !TimeStep
11,1,Environment,Site Diffuse Solar Radiation Rate per Area [W/m2] !TimeStep
12,1,Environment,Site Direct Solar Radiation Rate per Area [W/m2] !TimeStep
13,1,SPACE5-1,Zone People Occupant Count [] !TimeStep
838,1,SPACE5-1,Zone Air Temperature [C] !TimeStep
839,1,SPACE5-1,Zone Air Relative Humidity [%] !TimeStep
902,1,SPACE5-1,Zone Thermostat Heating Setpoint Temperature [C] !TimeStep
903,1,SPACE5-1,Zone Thermostat Cooling Setpoint Temperature [C] !TimeStep
1051,1,Whole Building,Facility Total HVAC Electricity Demand Rate [W] !TimeStep
1313,1,Site,Environmental Impact Total CO2 Emissions Carbon Equivalent Mass [kg] !TimeStep
1078,1,Electricity:HVAC [J] !TimeStep
End of Data Dictionary
1,RUNPERIOD 1,  35.25, 136.93,   9.00,  17.00
2,1, 4, 1, 0, 1, 0.00,10.00,Monday
7,10.449954662310088
8,94.66666666666667
9,1.3333333333333333
10,306.6666666666667
11,0.0
12,0.0
13,0.0
838,19.937913951877036
839,64.99824794574002
902,12.8
903,40.0
1051,94.3811460135236
1313,0.0
1078,56628.68760811416
2,1, 4, 1, 0, 1,10.00,20.00,Monday
7,10.599748572530007
8,89.33333333333334
9,1.1666666666666667
10,313.3333333333333
11,0.0
12,0.0
13,0.0
838,19.886526234170372
839,65.00809772907097
902,14.418753623962402
903,23.25
1051,94.3811460135236
1313,0.0
1078,56628.68760811416
2,1, 4, 1, 0, 1,20.00,30.00,Monday
7,10.749542482749927
8,84.0
9,1.0
10,320.0
11,0.0
12,0.0
13,0.0
838,19.837675316021254
839,64.98036935373919
902,12.0
903,23.25
1051,94.3811460135236
1313,0.0
1078,56628.68760811416
2,1, 4, 1, 0, 1,30.00,40.00,Monday
7,10.89933639296985
8,78.66666666666666
9,0.8333333333333333
10,326.6666666666667
11,0.0
12,0.0
13,0.0
838,19.791074727139645
839,64.9177937523326
902,12.0
903,23.25
1051,94.3811460135236
1313,0.0
1078,56628.68760811416
2,1, 4, 1, 0, 1,40.00,50.00,Monday
7,11.04913030318977
8,73.33333333333334
9,0.6666666666666666
10,333.3333333333333
11,0.0
12,0.0
13,0.0
838,19.746895326022724
839,64.82180766904257
902,12.0
903,23.25
1051,94.3811460135236
1313,0.0
1078,56628.68760811416
2,1, 4, 1, 0, 1,50.00,60.00,Monday
7,11.198924213409692
8,68.0
9,0.5
10,340.0
11,0.0
12,0.0
13,0.0
838,19.704991049629758
839,64.69449086801463
902,12.0
903,23.25
1051,94.3811460135236
1313,0.0
1078,56628.68760811416
2,1, 4, 1, 0, 2, 0.00,10.00,Monday
7,11.168636321611501
8,68.33333333333334
9,0.6666666666666667
10,340.0
11,0.0
12,0.0
13,0.0
838,19.665219118185803
839,64.56135915340923
902,12.0
903,23.25
1051,94.3811460135236
1313,0.0
1078,56628.68760811416
2,1, 4, 1, 0, 2,10.00,20.00,Monday
7,11.138348429813309
8,68.66666666666667
9,0.8333333333333334
10,340.0
11,0.0
12,0.0
13,0.0
838,19.627459463184376
839,64.43686711739586
902,12.0
903,23.25
1051,94.3811460135236
1313,0.0
1078,56628.68760811416
2,1, 4, 1, 0, 2,20.00,30.00,Monday
7,11.108060538015115
8,69.0
9,1.0
10,340.0
11,0.0
12,0.0
13,0.0
838,19.591582109259512
839,64.32419992679407
902,12.0
903,23.25
1051,94.3811460135236
1313,0.0
1078,56628.68760811416
2,1, 4, 1, 0, 2,30.00,40.00,Monday
7,11.077772646216923
8,69.33333333333333
9,1.1666666666666667
10,340.0
11,0.0
12,0.0
13,0.0
838,19.55744590962951
839,64.22172158137259
902,12.0
903,23.25
1051,94.3811460135236
1313,0.0
1078,56628.68760811416
2,1, 4, 1, 0, 2,40.00,50.00,Monday
7,11.047484754418731
8,69.66666666666667
9,1.3333333333333333
10,340.0
11,0.0
12,0.0
13,0.0
838,19.524911638923395
839,64.12715844648227
902,12.0
903,23.25
1051,94.3811460135236
1313,0.0
1078,56628.68760811416
2,1, 4, 1, 0, 2,50.00,60.00,Monday
7,11.017196862620539
8,70.0
9,1.5
10,340.0
11,0.0
12,0.0
13,0.0
838,19.49385188080127
839,64.03898122915818
902,12.0
903,23.25
1051,94.3811460135236
1313,0.0
1078,56628.68760811416
2,1, 4, 1, 0, 3, 0.00,10.00,Monday
7,10.943354510176402
8,70.33333333333334
9,1.4166666666666667
10,346.6666666666667
11,0.0
12,0.0
13,0.0
838,19.464152743077776
839,63.95653723719326
902,12.0
903,23.25
1051,94.3811460135236
1313,0.0
1078,56628.68760811416
2,1, 4, 1, 0, 3,10.00,20.00,Monday
7,10.869512157732263
8,70.66666666666667
9,1.3333333333333333
10,353.3333333333333
11,0.0
12,0.0
13,0.0
838,19.435708468755816
839,63.879556932188876
902,12.0
903,23.25
1051,94.3811460135236
1313,0.0
1078,56628.68760811416
2,1, 4, 1, 0, 3,20.00,30.00,Monday
7,10.795669805288124
8,71.0
9,1.25
10,0.0
11,0.0
12,0.0
13,0.0
838,19.408418785175538
839,63.80792115710114
902,12.0
903,23.25
1051,94.3811460135236
1313,0.0
1078,56628.68760811416
2,1, 4, 1, 0, 3,30.00,40.00,Monday
7,10.721827452843987
8,71.33333333333334
9,1.1666666666666665
10,6.666666666666686
11,0.0
12,0.0
13,0.0
838,19.382188964450915
839,63.74156487472352
902,12.0
903,23.25
1051,94.3811460135236
1313,0.0
1078,56628.68760811416
2,1, 4, 1, 0, 3,40.00,50.00,Monday
7,10.647985100399849
8,71.66666666666666
9,1.0833333333333333
10,13.333333333333314
11,0.0
12,0.0
13,0.0
838,19.356930849965185
839,63.68044007811744
902,12.0
903,23.25
1051,94.3811460135236
1313,0.0
1078,56628.68760811416
2,1, 4, 1, 0, 3,50.00,60.00,Monday
7,10.574142747955712
8,72.0
9,1.0
10,20.0
11,0.0
12,0.0
13,0.0
838,19.332563487557913
839,63.62451475971227
902,12.0
903,23.25
1051,94.3811460135236
1313,0.0
1078,56628.68760811416
2,1, 4, 1, 0, 4, 0.00,10.00,Monday
7,10.612579795703653
8,72.5
9,0.8333333333333334
10,16.666666666666668
11,0.0
12,0.0
13,0.0
838,19.309015492304166
839,63.57403518711712
902,12.0
903,23.25
1051,94.3811460135236
1313,0.0
1078,56628.68760811416
2,1, 4, 1, 0, 4,10.00,20.00,Monday
7,10.651016843451593
8,73.0
9,0.6666666666666667
10,13.333333333333334
11,0.0
12,0.0
13,0.0
838,19.2862386916864
839,63.529074705158315
902,12.0
903,23.34527015686035
1051,94.3811460135236
1313,0.0
1078,56628.68760811416
2,1, 4, 1, 0, 4,20.00,30.00,Monday
7,10.689453891199534
8,73.5
9,0.5
10,10.0
11,0.0
12,0.0
13,0.0
838,19.263934251750158
839,63.49059354830007
902,12.0
903,23.405132293701172
1051,94.3811460135236
1313,0.0
1078,56628.68760811416
2,1, 4, 1, 0, 4,30.00,40.00,Monday
7,10.727890938947473
8,74.0
9,0.33333333333333337
10,6.666666666666668
11,0.0
12,0.0
13,0.0
838,19.241571530726052
839,63.46072280243688
902,12.0
903,23.39804458618164
1051,94.3811460135236
1313,0.0
1078,56628.68760811416
2,1, 4, 1, 0, 4,40.00,50.00,Monday
7,10.766327986695414
8,74.5
9,0.16666666666666663
10,3.333333333333332
11,0.0
12,0.0
13,0.0
838,19.218266794586242
839,63.44314608444368
902,12.0
903,23.30424690246582
1051,94.3811460135236
1313,0.0
1078,56628.68760811416
2,1, 4, 1, 0, 4,50.00,60.00,Monday
7,10.804765034443355
8,75.0
9,0.0
10,0.0
11,0.0
12,0.0
13,0.0
838,19.193735186716317
839,63.43927180670585
902,12.0
903,23.818201065063477
1051,94.3811460135236
1313,0.0
1078,56628.68760811416
2,1, 4, 1, 0, 5, 0.00,10.00,Monday
7,10.683619600942949
8,75.5
9,0.16666666666666666
10,6.666666666666666
11,0.0
12,0.0
13,0.0
838,19.167915717542986
839,63.449492369950875
902,12.0
903,23.677398681640625
1051,94.3811460135236
1313,0.0
1078,56628.68760811416
2,1, 4, 1, 0, 5,10.00,20.00,Monday
7,10.562474167442545
8,76.0
9,0.3333333333333333
10,13.333333333333332
11,0.0
12,0.0
13,0.0
838,19.141005142745897
839,63.47316137667297
902,12.0
903,23.863637924194336
1051,94.3811460135236
1313,0.0
1078,56628.68760811416
2,1, 4, 1, 0, 5,20.00,30.00,Monday
7,10.44132873394214
8,76.5
9,0.5
10,20.0
11,0.0
12,0.0
13,0.0
838,19.113292065126036
839,63.50930053020244
902,12.0
903,23.774749755859375
1051,94.3811460135236
1313,0.0
1078,56628.68760811416
2,1, 4, 1, 0, 5,30.00,40.00,Monday
7,10.320183300441734
8,77.0
9,0.6666666666666666
10,26.666666666666664
11,0.0
12,0.0
13,0.0
838,19.0850628352776
839,63.55687661328363
902,12.0
903,23.81882095336914
1051,94.3811460135236
1313,0.0
1078,56628.68760811416
2,1, 4, 1, 0, 5,40.00,50.00,Monday
7,10.199037866941328
8,77.5
9,0.8333333333333334
10,33.333333333333336
11,0.0
12,0.0
13,0.0
838,19.05654092493197
839,63.61500476855873
902,12.0
903,23.741445541381836
1051,94.3811460135236
1313,0.0
1078,56628.68760811416
2,1, 4, 1, 0, 5,50.00,60.00,Monday
7,10.077892433440923
8,78.0
9,1.0
10,40.0
11,0.0
12,0.0
13,0.0
838,19.027913452516046
839,63.68283817979965
902,12.0
903,23.984256744384766
1051,94.3811460135236
1313,0.0
1078,56628.68760811416
2,1, 4, 1, 0, 6, 0.00,10.00,Monday
7,10.095386636912938
8,78.5
9,1.0
10,41.666666666666664
11,0.0
12,0.0
13,0.0
838,18.999326950135444
839,63.75966012870787
902,12.0
903,23.75572395324707
1051,94.3811460135236
1313,0.0
1078,56628.68760811416
2,1, 4, 1, 0, 6,10.00,20.00,Monday
7,10.112880840384955
8,79.0
9,1.0
10,43.333333333333336
11,0.0
12,0.0
13,0.0
838,18.97091392922975
839,63.844751685750644
902,12.0
903,24.22223663330078
1051,94.3811460135236
1313,0.0
1078,56628.68760811416
2,1, 4, 1, 0, 6,20.00,30.00,Monday
7,10.130375043856969
8,79.5
9,1.0
10,45.0
11,0.0
12,0.0
13,0.0
838,18.932612537090584
839,63.97286098305731
902,12.0
903,23.99229621887207
1051,94.3811460135236
1313,0.0
1078,56628.68760811416
2,1, 4, 1, 0, 6,30.00,40.00,Monday
7,10.147869247328986
8,80.0
9,1.0
10,46.666666666666664
11,0.0
12,0.0
13,0.0
838,18.897726525127876
839,64.08774975392708
902,12.0
903,24.280237197875977
1051,129.4588988272835
1313,0.0
1078,77675.33929637009
2,1, 4, 1, 0, 6,40.00,50.00,Monday
7,10.165363450801001
8,80.5
9,1.0
10,48.333333333333336
11,7.333333333333332
12,0.0
13,0.0
838,18.867326072208673
839,64.18455741155424
902,12.0
903,24.464942932128906
1051,140.98690261830183
1313,0.0
1078,84592.1415709811
2,1, 4, 1, 0, 6,50.00,60.00,Monday
7,10.182857654273016
8,81.0
9,1.0
10,50.0
11,10.5
12,0.0
13,0.0
838,18.839608645466722
839,64.27110864911755
902,12.0
903,24.290342330932617
1051,152.81778610438056
1313,0.0
1078,91690.67166262833
2,1, 4, 1, 0, 7, 0.00,10.00,Monday
7,9.978287181532133
8,83.0
9,0.9166666666666667
10,50.0
11,13.66666666666667
12,0.0
13,0.0
838,18.821916122291224
839,64.13336487118856
902,12.0
903,24.38906478881836
1051,584.9247814730988
1313,0.0
1078,350954.8688838593
2,1, 4, 1, 0, 7,10.00,20.00,Monday
7,9.77371670879125
8,85.0
9,0.8333333333333334
10,50.0
11,16.833333333333336
12,0.0
13,0.0
838,18.80416496309825
839,63.89492961270968
902,12.0
903,24.91944122314453
1051,587.1255521801078
1313,0.0
1078,352275.33130806463
2,1, 4, 1, 0, 7,20.00,30.00,Monday
7,9.569146236050367
8,87.0
9,0.75
10,50.0
11,20.0
12,0.0
13,0.0
838,18.785026625681436
839,63.64710329305577
902,12.0
903,25.359861373901367
1051,606.1721607988256
1313,0.0
1078,363703.2964792954
2,1, 4, 1, 0, 7,30.00,40.00,Monday
7,9.364575763309483
8,89.0
9,0.6666666666666667
10,50.0
11,29.666666666666664
12,0.0
13,0.0
838,18.76597779586152
839,63.420825804905945
902,12.0
903,25.496749877929688
1051,624.3921791813165
1313,0.0
1078,374635.3075087899
2,1, 4, 1, 0, 7,40.00,50.00,Monday
7,9.1600052905686
8,91.0
9,0.5833333333333333
10,50.0
11,39.33333333333333
12,0.0
13,0.0
838,18.74811524965736
839,63.21648721614434
902,12.0
903,25.80419921875
1051,642.1198115150887
1313,0.0
1078,385271.88690905325
2,1, 4, 1, 0, 7,50.00,60.00,Monday
7,8.955434817827717
8,93.0
9,0.5
10,50.0
11,49.0
12,0.0
13,0.0
838,18.731915041757706
839,63.026185397393334
902,12.0
903,26.06224250793457
1051,659.437896022258
1313,0.0
1078,395662.7376133548
2,1, 4, 1, 0, 8, 0.00,10.00,Monday
7,9.09213528883714
8,92.0
9,0.8500000000000001
10,50.0
11,58.66666666666667
12,0.0
13,0.0
838,18.717671430130114
839,62.83764311610286
902,12.0
903,26.31385040283203
1051,655.5293820487684
1313,0.0
1078,393317.629229261
2,1, 4, 1, 0, 8,10.00,20.00,Monday
7,9.228835759846563
8,91.0
9,1.2000000000000002
10,50.0
11,68.33333333333333
12,0.0
13,0.0
838,18.705577575891606
839,62.6437357968759
902,12.0
903,26.2001953125
1051,651.2235596005836
1313,0.0
1078,390734.13576035015
2,1, 4, 1, 0, 8,20.00,30.00,Monday
7,9.365536230855984
8,90.0
9,1.55
10,50.0
11,78.0
12,0.0
13,0.0
838,18.695813728811107
839,62.441673761764804
902,12.0
903,26.35573959350586
1051,646.3122658802614
1313,0.0
1078,387787.35952815687
2,1, 4, 1, 0, 8,30.00,40.00,Monday
7,9.502236701865407
8,89.0
9,1.9000000000000001
10,50.0
11,89.0
12,0.0
13,0.0
838,18.688435943642062
839,62.23112939758324
902,12.0
903,26.387428283691406
1051,641.0194108528009
1313,0.0
1078,384611.6465116805
2,1, 4, 1, 0, 8,40.00,50.00,Monday
7,9.63893717287483
8,88.0
9,2.2500000000000004
10,50.0
11,100.0
12,0.0
13,0.0
838,18.68360726002518
839,62.01181573718395
902,12.0
903,26.228490829467773
1051,635.3052239674945
1313,0.0
1078,381183.1343804967
2,1, 4, 1, 0, 8,50.00,60.00,Monday
7,9.775637643884252
8,87.0
9,2.6
10,50.0
11,111.0
12,0.0
13,0.0
838,18.68143192110889
839,61.78359122734746
902,12.0
903,26.42061996459961
1051,629.1285282191718
1313,0.0
1078,377477.1169315031
2,1, 4, 1, 0, 9, 0.00,10.00,Monday
7,9.815502428946855
8,88.16666666666667
9,2.416666666666667
10,43.333333333333336
11,122.0
12,0.0
13,20.0
838,19.60128475292064
839,58.98855619781175
902,12.0
903,26.031455993652344
1051,601.4460451023095
1313,0.0
1078,360867.62706138566
2,1, 4, 1, 0, 9,10.00,20.00,Monday
7,9.85536721400946
8,89.33333333333334
9,2.2333333333333334
10,36.66666666666667
11,133.0
12,0.0
13,20.0
838,20.481154314418042
839,56.700643099670046
902,12.0
903,23.25
1051,549.3689703845665
1313,0.0
1078,329621.3822307399
2,1, 4, 1, 0, 9,20.00,30.00,Monday
7,9.895231999072063
8,90.5
9,2.05
10,30.0
11,144.0
12,0.0
13,20.0
838,21.193719294443007
839,55.20262154288814
902,13.209061622619625
903,23.249999999999993
1051,511.6118816808496
1313,0.0
1078,306967.12900850986
2,1, 4, 1, 0, 9,30.00,40.00,Monday
7,9.935096784134666
8,91.66666666666667
9,1.8666666666666667
10,23.333333333333336
11,153.16666666666666
12,0.33333333333333326
13,20.0
838,21.88125098968098
839,54.49238004625971
902,13.124438285827642
903,23.25000000000001
1051,475.9487111429199
1313,0.0
1078,285569.2266857518
2,1, 4, 1, 0, 9,40.00,50.00,Monday
7,9.97496156919727
8,92.83333333333334
9,1.6833333333333331
10,16.666666666666664
11,162.33333333333331
12,0.6666666666666665
13,20.0
838,22.323427242045895
839,54.23603077189134
902,13.288507461547852
903,23.25
1051,449.69590310673505
1313,0.0
1078,269817.541864041
2,1, 4, 1, 0, 9,50.00,60.00,Monday
7,10.014826354259872
8,94.0
9,1.5
10,10.0
11,171.5
12,1.0
13,20.0
838,22.72753643328729
839,54.50288132349606
902,12.002902030944824
903,23.25
1051,419.2940678425334
1313,0.0
1078,251576.44070552004
2,1, 4, 1, 0,10, 0.00,10.00,Monday
7,10.152042538776756
8,94.00000000000001
9,1.6
10,10.0
11,180.66666666666669
12,1.3333333333333335
13,20.0
838,23.206625239091096
839,54.24086382946667
902,12.765955924987793
903,23.25
1051,557.3626849772844
1313,0.0
1078,334417.61098637065
2,1, 4, 1, 0,10,10.00,20.00,Monday
7,10.289258723293639
8,94.0
9,1.7
10,10.0
11,189.83333333333334
12,1.6666666666666667
13,20.0
838,23.248138593386926
839,54.13416762352318
902,13.860116004943848
903,23.25
1051,731.0529336418103
1313,0.0
1078,438631.7601850862
2,1, 4, 1, 0,10,20.00,30.00,Monday
7,10.426474907810523
8,94.0
9,1.8
10,10.0
11,199.0
12,2.0
13,20.0
838,23.24958210800503
839,54.03429365948189
902,17.327613830566406
903,23.25
1051,648.7110636604034
1313,0.0
1078,389226.63819624204
2,1, 4, 1, 0,10,30.00,40.00,Monday
7,10.563691092327405
8,94.0
9,1.9
10,10.0
11,205.5
12,2.333333333333333
13,20.0
838,23.249661967491328
839,54.1542486940734
902,14.533101081848145
903,23.25
1051,642.8366683704736
1313,0.0
1078,385702.00102228415
2,1, 4, 1, 0,10,40.00,50.00,Monday
7,10.700907276844289
8,94.0
9,2.0
10,10.0
11,212.0
12,2.6666666666666665
13,20.0
838,23.249671280529377
839,54.39340477234029
902,16.663070678710938
903,23.25
1051,503.73409767493513
1313,0.0
1078,302240.45860496105
2,1, 4, 1, 0,10,50.00,60.00,Monday
7,10.838123461361171
8,94.0
9,2.1
10,10.0
11,218.5
12,3.0
13,20.0
838,23.249675045911353
839,54.72786625066445
902,15.0198335647583
903,23.25
1051,327.5790432015481
1313,0.0
1078,196547.42592092883
2,1, 4, 1, 0,11, 0.00,10.00,Monday
7,10.866221648759387
8,94.00000000000001
9,2.4333333333333336
10,35.0
11,225.0
12,3.3333333333333335
13,20.0
838,23.24964137314657
839,54.966808343553275
902,16.230960845947266
903,23.25
1051,456.14094284126156
1313,0.0
1078,273684.5657047569
2,1, 4, 1, 0,11,10.00,20.00,Monday
7,10.894319836157601
8,94.0
9,2.7666666666666666
10,60.0
11,231.5
12,3.666666666666667
13,20.0
838,23.249474459134586
839,55.05381008237787
902,17.255722045898438
903,23.25
1051,555.5109572787314
1313,0.0
1078,333306.57436723885
2,1, 4, 1, 0,11,20.00,30.00,Monday
7,10.922418023555817
8,94.0
9,3.0999999999999996
10,85.0
11,238.0
12,4.0
13,20.0
838,23.4344791874588
839,54.61254754666991
902,17.62479019165039
903,23.462398529052734
1051,345.70900201819677
1313,0.0
1078,207425.40121091806
2,1, 4, 1, 0,11,30.00,40.00,Monday
7,10.950516210954031
8,94.0
9,3.433333333333333
10,110.0
11,241.16666666666666
12,4.166666666666667
13,20.0
838,23.43390730539354
839,54.57065912989295
902,18.437070846557617
903,23.434452056884766
1051,683.0965537701167
1313,0.0
1078,409857.93226207
2,1, 4, 1, 0,11,40.00,50.00,Monday
7,10.978614398352246
8,94.0
9,3.7666666666666666
10,135.0
11,244.33333333333331
12,4.333333333333333
13,20.0
838,23.96281758829116
839,53.36829025989094
902,19.836332321166992
903,23.969865798950195
1051,292.86619842435056
1313,0.0
1078,175719.71905461032
2,1, 4, 1, 0,11,50.00,60.00,Monday
7,11.006712585750462
8,94.0
9,4.1
10,160.0
11,247.5
12,4.5
13,20.0
838,24.29473647580445
839,52.817391732495516
902,23.13343048095703
903,24.302457809448242
1051,221.8037702087012
1313,0.0
1078,133082.2621252207
2,1, 4, 1, 0,12, 0.00,10.00,Monday
7,11.067402426606806
8,94.00000000000001
9,3.7666666666666666
10,160.0
11,250.66666666666666
12,4.666666666666667
13,16.0
838,24.172049665627085
839,53.14847392026891
902,22.054439544677734
903,24.166025161743164
1051,268.21213707414677
1313,0.0
1078,160927.28224448807
2,1, 4, 1, 0,12,10.00,20.00,Monday
7,11.12809226746315
8,94.0
9,3.4333333333333336
10,160.0
11,253.83333333333334
12,4.833333333333334
13,16.0
838,24.482153647877876
839,52.36307423683522
902,20.584869384765625
903,24.49043846130371
1051,193.38860005775234
1313,0.0
1078,116033.1600346514
2,1, 4, 1, 0,12,20.00,30.00,Monday
7,11.188782108319494
8,94.0
9,3.0999999999999996
10,160.0
11,257.0
12,5.0
13,16.0
838,24.84303663931231
839,51.65708885600564
902,22.089008331298828
903,24.848546981811523
1051,142.72869530941338
1313,0.0
1078,85637.21718564803
2,1, 4, 1, 0,12,30.00,40.00,Monday
7,11.249471949175838
8,94.0
9,2.7666666666666666
10,160.0
11,256.83333333333337
12,5.0
13,16.0
838,25.109616261493905
839,51.33271880732976
902,23.25
903,25.113393783569336
1051,123.49672872529862
1313,0.0
1078,74098.03723517917
2,1, 4, 1, 0,12,40.00,50.00,Monday
7,11.310161790032183
8,94.0
9,2.4333333333333336
10,160.0
11,256.66666666666663
12,5.0
13,16.0
838,25.54549451844462
839,50.79474778628682
902,23.25
903,25.669660568237305
1051,94.3811460135236
1313,0.0
1078,56628.68760811416
2,1, 4, 1, 0,12,50.00,60.00,Monday
7,11.370851630888527
8,94.0
9,2.1
10,160.0
11,256.5
12,5.0
13,16.0
838,25.453687551649224
839,51.4358397137846
902,23.25
903,25.450267791748047
1051,152.87765194375788
1313,0.0
1078,91726.59116625473
2,1, 4, 1, 0,13, 0.00,10.00,Monday
7,11.37365446776473
8,94.00000000000001
9,2.1833333333333336
10,160.0
11,256.3333333333333
12,5.0
13,8.0
838,25.200583459154632
839,51.95373768697365
902,23.25
903,25.173994064331055
1051,125.84750589534366
1313,0.0
1078,75508.5035372062
2,1, 4, 1, 0,13,10.00,20.00,Monday
7,11.376457304640935
8,94.0
9,2.2666666666666666
10,160.0
11,256.1666666666667
12,5.0
13,8.0
838,25.672885473373814
839,50.72293690013025
902,20.492767333984375
903,25.9759578704834
1051,94.3811460135236
1313,0.0
1078,56628.68760811416
2,1, 4, 1, 0,13,20.00,30.00,Monday
7,11.379260141517136
8,94.0
9,2.35
10,160.0
11,256.0
12,5.0
13,8.0
838,25.68390457121894
839,50.595359755333135
902,23.25
903,25.66817855834961
1051,94.3811460135236
1313,0.0
1078,56628.68760811416
2,1, 4, 1, 0,13,30.00,40.00,Monday
7,11.382062978393341
8,94.0
9,2.4333333333333336
10,160.0
11,252.33333333333334
12,4.833333333333334
13,8.0
838,25.93095876757917
839,50.048548400857584
902,23.25
903,25.937461853027344
1051,94.3811460135236
1313,0.0
1078,56628.68760811416
2,1, 4, 1, 0,13,40.00,50.00,Monday
7,11.384865815269544
8,94.0
9,2.516666666666667
10,160.0
11,248.66666666666669
12,4.666666666666667
13,8.0
838,26.02091878136275
839,49.9258340396738
902,23.25
903,26.026063919067383
1051,94.3811460135236
1313,0.0
1078,56628.68760811416
2,1, 4, 1, 0,13,50.00,60.00,Monday
7,11.387668652145747
8,94.0
9,2.6
10,160.0
11,245.0
12,4.5
13,8.0
838,25.785479480631544
839,50.419184150232695
902,23.25
903,25.766143798828125
1051,95.64738025684966
1313,0.0
1078,57388.428154109795
2,1, 4, 1, 0,14, 0.00,10.00,Monday
7,11.356728993217711
8,94.00000000000001
9,2.516666666666667
10,146.66666666666666
11,241.33333333333334
12,4.333333333333333
13,16.0
838,25.829722640281602
839,50.49824436976332
902,23.25
903,25.834217071533203
1051,94.3811460135236
1313,0.0
1078,56628.68760811416
2,1, 4, 1, 0,14,10.00,20.00,Monday
7,11.325789334289677
8,94.0
9,2.4333333333333336
10,133.33333333333334
11,237.66666666666666
12,4.166666666666667
13,16.0
838,25.694070316226117
839,51.02977221479913
902,23.25
903,25.677120208740234
1051,164.06296899993063
1313,0.0
1078,98437.78139995837
2,1, 4, 1, 0,14,20.00,30.00,Monday
7,11.29484967536164
8,94.0
9,2.35
10,120.0
11,234.0
12,4.0
13,16.0
838,25.943748260792212
839,50.69511669920384
902,23.25
903,25.96261978149414
1051,94.3811460135236
1313,0.0
1078,56628.68760811416
2,1, 4, 1, 0,14,30.00,40.00,Monday
7,11.263910016433606
8,94.0
9,2.2666666666666666
10,106.66666666666667
11,227.16666666666666
12,3.666666666666667
13,16.0
838,25.82247637279993
839,51.06835633377618
902,23.25
903,25.80959701538086
1051,177.94046665836498
1313,0.0
1078,106764.279995019
2,1, 4, 1, 0,14,40.00,50.00,Monday
7,11.23297035750557
8,94.0
9,2.1833333333333336
10,93.33333333333333
11,220.33333333333334
12,3.3333333333333335
13,16.0
838,25.733213753118843
839,51.288028394652095
902,23.25
903,25.72407341003418
1051,120.00567631021721
1313,0.0
1078,72003.40578613033
2,1, 4, 1, 0,14,50.00,60.00,Monday
7,11.202030698577534
8,94.0
9,2.1
10,80.0
11,213.5
12,3.0
13,16.0
838,25.66219589252164
839,51.40605854075355
902,23.25
903,25.654346466064453
1051,153.5765057966016
1313,0.0
1078,92145.90347796095
2,1, 4, 1, 0,15, 0.00,10.00,Monday
7,11.187288690099658
8,94.00000000000001
9,2.0
10,80.0
11,206.66666666666669
12,2.6666666666666665
13,20.0
838,25.27816941853511
839,52.25791990523405
902,23.25
903,25.253971099853516
1051,358.6380349095677
1313,0.0
1078,215182.82094574062
2,1, 4, 1, 0,15,10.00,20.00,Monday
7,11.172546681621782
8,94.0
9,1.9000000000000001
10,80.0
11,199.83333333333334
12,2.333333333333333
13,20.0
838,25.398339369157398
839,52.045900338077814
902,23.25
903,25.411361694335938
1051,107.43056245442637
1313,0.0
1078,64458.33747265582
2,1, 4, 1, 0,15,20.00,30.00,Monday
7,11.157804673143904
8,94.0
9,1.8
10,80.0
11,193.0
12,2.0
13,20.0
838,25.30804169269271
839,52.258096729691594
902,23.25
903,25.293617248535156
1051,334.84511617409674
1313,0.0
1078,200907.06970445806
2,1, 4, 1, 0,15,30.00,40.00,Monday
7,11.143062664666028
8,94.0
9,1.7000000000000002
10,80.0
11,183.5
12,1.6666666666666667
13,20.0
838,25.380327258109162
839,52.058243768909854
902,23.25
903,25.390796661376953
1051,155.70174843014638
1313,0.0
1078,93421.04905808782
2,1, 4, 1, 0,15,40.00,50.00,Monday
7,11.12832065618815
8,94.0
9,1.5999999999999999
10,80.0
11,174.0
12,1.3333333333333335
13,20.0
838,25.28057966178298
839,52.178360839279236
902,23.25
903,25.265153884887695
1051,300.61862200823805
1313,0.0
1078,180371.17320494284
2,1, 4, 1, 0,15,50.00,60.00,Monday
7,11.113578647710273
8,94.0
9,1.5
10,80.0
11,164.5
12,1.0
13,20.0
838,25.13809476455655
839,52.280966597906584
902,23.25
903,25.119373321533203
1051,299.32682609712225
1313,0.0
1078,179596.09565827335
2,1, 4, 1, 0,16, 0.00,10.00,Monday
7,11.217841616620664
8,94.00000000000001
9,1.7666666666666666
10,66.66666666666669
11,155.0
12,0.6666666666666665
13,20.0
838,24.71499963355018
839,52.89251479895428
902,21.966854095458984
903,24.682241439819336
1051,500.23655531100906
1313,0.0
1078,300141.93318660546
2,1, 4, 1, 0,16,10.00,20.00,Monday
7,11.322104585531054
8,94.0
9,2.033333333333333
10,53.333333333333314
11,145.5
12,0.33333333333333326
13,20.0
838,24.785870521936435
839,52.43131911824934
902,19.307331085205078
903,24.79821014404297
1051,192.6418811826424
1313,0.0
1078,115585.12870958545
2,1, 4, 1, 0,16,20.00,30.00,Monday
7,11.426367554441445
8,94.0
9,2.3
10,40.0
11,136.0
12,0.0
13,20.0
838,24.3562657903734
839,52.98243203621843
902,19.339168548583984
903,24.327476501464844
1051,549.6929854005278
1313,0.0
1078,329815.7912403167
2,1, 4, 1, 0,16,30.00,40.00,Monday
7,11.530630523351835
8,94.0
9,2.5666666666666664
10,26.666666666666686
11,125.0
12,0.0
13,20.0
838,23.64899326989999
839,53.830326481988784
902,17.45983505249025
903,23.62028884887697
1051,697.5494422021706
1313,0.0
1078,418529.665321302
2,1, 4, 1, 0,16,40.00,50.00,Monday
7,11.634893492262226
8,94.0
9,2.8333333333333335
10,13.333333333333314
11,114.0
12,0.0
13,20.0
838,23.275897303178564
839,53.96675270536362
902,16.081092834472656
903,23.25
1051,827.3173750862509
1313,0.0
1078,496390.42505175056
2,1, 4, 1, 0,16,50.00,60.00,Monday
7,11.739156461172616
8,94.0
9,3.1
10,0.0
11,103.0
12,0.0
13,20.0
838,23.250131552306144
839,53.39542091135575
902,15.009021759033203
903,23.25
1051,776.0695376532686
1313,0.0
1078,465641.7225919612
2,1, 4, 1, 0,17, 0.00,10.00,Monday
7,11.565847725433745
8,94.00000000000001
9,3.0166666666666666
10,0.0
11,92.0
12,0.0
13,20.0
838,23.24936253646806
839,53.00414368542072
902,13.643989562988281
903,23.25
1051,727.6755278480291
1313,0.0
1078,436605.31670881744
2,1, 4, 1, 0,17,10.00,20.00,Monday
7,11.392538989694874
8,94.0
9,2.9333333333333336
10,0.0
11,81.0
12,0.0
13,20.0
838,23.249274261597908
839,52.68920970217638
902,13.877975463867188
903,23.25
1051,676.4461370281091
1313,0.0
1078,405867.6822168655
2,1, 4, 1, 0,17,20.00,30.00,Monday
7,11.219230253956002
8,94.0
9,2.85
10,0.0
11,70.0
12,0.0
13,20.0
838,23.24927905541595
839,52.37907695834271
902,12.459532737731934
903,23.25
1051,635.1249097770493
1313,0.0
1078,381074.9458662296
2,1, 4, 1, 0,17,30.00,40.00,Monday
7,11.045921518217131
8,94.0
9,2.7666666666666666
10,0.0
11,60.833333333333336
12,0.0
13,20.0
838,23.24929653211355
839,52.07931640311827
902,13.356739044189453
903,23.25
1051,584.333414234962
1313,0.0
1078,350600.0485409772
2,1, 4, 1, 0,17,40.00,50.00,Monday
7,10.87261278247826
8,94.0
9,2.6833333333333336
10,0.0
11,51.66666666666667
12,0.0
13,20.0
838,23.249311870004775
839,51.805388532525996
902,13.22032642364502
903,23.25
1051,531.8253841441963
1313,0.0
1078,319095.2304865178
2,1, 4, 1, 0,17,50.00,60.00,Monday
7,10.699304046739389
8,94.0
9,2.6
10,0.0
11,42.5
12,0.0
13,20.0
838,23.249324814164176
839,51.559506834435155
902,12.707488059997559
903,23.25
1051,491.1291208156517
1313,0.0
1078,294677.472489391
2,1, 4, 1, 0,18, 0.00,10.00,Monday
7,10.748933034640547
8,94.00000000000001
9,2.6833333333333336
10,351.6666666666667
11,33.33333333333333
12,0.0
13,20.0
838,23.249365240394454
839,51.39328091190165
902,13.537364959716797
903,23.25
1051,458.5107032731874
1313,0.0
1078,275106.42196391243
2,1, 4, 1, 0,18,10.00,20.00,Monday
7,10.798562022541706
8,94.0
9,2.7666666666666666
10,343.3333333333333
11,24.166666666666664
12,0.0
13,20.0
838,23.249399673150556
839,51.31195793212532
902,12.0
903,23.25
1051,430.437863218648
1313,0.0
1078,258262.7179311888
2,1, 4, 1, 0,18,20.00,30.00,Monday
7,10.848191010442862
8,94.0
9,2.85
10,335.0
11,15.0
12,0.0
13,20.0
838,23.24942404767309
839,51.29443633997101
902,13.215303421020508
903,23.25
1051,408.29253245874617
1313,0.0
1078,244975.5194752477
2,1, 4, 1, 0,18,30.00,40.00,Monday
7,10.897819998344021
8,94.0
9,2.933333333333333
10,326.6666666666667
11,12.5
12,0.0
13,20.0
838,23.2494414986432
839,51.32028891401481
902,12.0
903,23.25
1051,394.40301407897215
1313,0.0
1078,236641.8084473833
2,1, 4, 1, 0,18,40.00,50.00,Monday
7,10.94744898624518
8,94.0
9,3.0166666666666666
10,318.3333333333333
11,10.000000000000002
12,0.0
13,20.0
838,23.249455681188913
839,51.37941027470811
902,12.0
903,23.25
1051,381.43256950680825
1313,0.0
1078,228859.54170408496
2,1, 4, 1, 0,18,50.00,60.00,Monday
7,10.997077974146336
8,94.0
9,3.1
10,310.0
11,7.5
12,0.0
13,20.0
838,23.249467547588512
839,51.4664321280792
902,12.0
903,23.25
1051,370.56520125924294
1313,0.0
1078,222339.12075554577
2,1, 4, 1, 0,19, 0.00,10.00,Monday
7,10.986263166735851
8,94.00000000000001
9,2.9333333333333336
10,320.0
11,0.0
12,0.0
13,10.0
838,23.249681181223696
839,51.49702929258992
902,12.0
903,23.25
1051,94.3811460135236
1313,0.0
1078,56628.68760811416
2,1, 4, 1, 0,19,10.00,20.00,Monday
7,10.975448359325366
8,94.0
9,2.7666666666666666
10,330.0
11,0.0
12,0.0
13,10.0
838,23.24972889987851
839,51.53242607577319
902,12.0
903,23.25
1051,94.3811460135236
1313,0.0
1078,56628.68760811416
2,1, 4, 1, 0,19,20.00,30.00,Monday
7,10.96463355191488
8,94.0
9,2.6
10,340.0
11,0.0
12,0.0
13,10.0
838,23.260968450427683
839,51.57935445361451
902,12.0
903,23.26222801208496
1051,94.3811460135236
1313,0.0
1078,56628.68760811416
2,1, 4, 1, 0,19,30.00,40.00,Monday
7,10.953818744504392
8,94.0
9,2.4333333333333336
10,350.0
11,0.0
12,0.0
13,10.0
838,23.25067574608645
839,51.71274879725157
902,12.0
903,23.25
1051,94.3811460135236
1313,0.0
1078,56628.68760811416