Program Version,EnergyPlus, Version 24.1.0-9d7789a3ac, YMD=2025.08.14 13:26
1,5,Environment Title[],Latitude[deg],Longitude[deg],Time Zone[],Elevation[m]
2,8,Day of Simulation[],Month[],Day of Month[],DST Indicator[1=yes 0=no],Hour[],StartMinute[],EndMinute[],DayType
3,5,Cumulative Day of Simulation[],Month[],Day of Month[],DST Indicator[1=yes 0=no],DayType  ! When Daily Report Variables Requested
4,2,Cumulative Days of Simulation[],Month[]  ! When Monthly Report Variables Requested
5,1,Cumulative Days of Simulation[] ! When Run Period Report Variables Requested
6,1,Calendar Year of Simulation[] ! When Annual Report Variables Requested
7,1,Environment,Site Outdoor Air Drybulb Temperature [C] !TimeStep
8,1,Environment,Site Outdoor Air Relative Humidity [%] !TimeStep
9,1,Environment,Site Wind Speed [m/s] !TimeStep
10,1,Environment,Site Wind Direction [deg] !TimeStep
11,1,Environment,Site Diffuse Solar Radiation Rate per Area [W/m2] !TimeStep
12,1,Environment,Site Direct Solar Radiation Rate per Area [W/m2] !TimeStep
13,1,SPACE5-1,Zone People Occupant Count [] !TimeStep
838,1,SPACE5-1,Zone Air Temperature [C] !TimeStep
839,1,SPACE5-1,Zone Air Relative Humidity [%] !TimeStep
902,1,SPACE5-1,Zone Thermostat Heating Setpoint Temperature [C] !TimeStep
903,1,SPACE5-1,Zone Thermostat Cooling Setpoint Temperature [C] !TimeStep
1051,1,Whole Building,Facility Total HVAC Electricity Demand Rate [W] !TimeStep
1313,1,Site,Environmental Impact Total CO2 Emissions Carbon Equivalent Mass [kg] !TimeStep
1078,1,Electricity:HVAC [J] !TimeStep
End of Data Dictionary
1,RUNPERIOD 1,  35.25, 136.93,   9.00,  17.00
2,1, 7, 1, 0, 1, 0.00,10.00,Monday
7,23.770668336649834
8,88.0
9,2.3333333333333335
10,195.0
11,0.0
12,0.0
13,0.0
838,21.414078266411124
839,53.758309380415035
902,12.8
903,40.0
1051,484.2117809053623
1313,0.0
1078,290527.0685432174
2,1, 7, 1, 0, 1,10.00,20.00,Monday
7,23.593365404312557
8,87.0
9,2.066666666666667
10,210.0
11,0.0
12,0.0
13,0.0
838,21.943644229202025
839,51.76532148247966
902,23.25
903,27.613231658935547
1051,7316.593944908452
1313,0.0
1078,4389956.366945071
2,1, 7, 1, 0, 1,20.00,30.00,Monday
7,23.41606247197528
8,86.0
9,1.8
10,225.0
11,0.0
12,0.0
13,0.0
838,22.4411708143799
839,49.934592406580286
902,23.249999999999993
903,25.512868881225575
1051,5113.973975423862
1313,0.0
1078,3068384.385254318
2,1, 7, 1, 0, 1,30.00,40.00,Monday
7,23.238759539638004
8,85.0
9,1.5333333333333334
10,240.0
11,0.0
12,0.0
13,0.0
838,22.80934825736548
839,48.52566741519303
902,23.250000000000007
903,25.905515670776374
1051,4821.152301743093
1313,0.0
1078,2892691.3810458547
2,1, 7, 1, 0, 1,40.00,50.00,Monday
7,23.06145660730073
8,84.0
9,1.2666666666666666
10,255.0
11,0.0
12,0.0
13,0.0
838,23.083796097969778
839,47.333396669259095
902,23.25
903,25.973865509033203
1051,4753.844870441131
1313,0.0
1078,2852306.922264679
2,1, 7, 1, 0, 1,50.00,60.00,Monday
7,22.884153674963454
8,83.0
9,1.0
10,270.0
11,0.0
12,0.0
13,0.0
838,23.24567794115568
839,46.43954175265401
902,23.25
903,25.99008560180664
1051,4444.5038272726415
1313,0.0
1078,2666702.296363585
2,1, 7, 1, 0, 2, 0.00,10.00,Monday
7,22.9243071627035
8,83.5
9,1.0
10,295.0
11,0.0
12,0.0
13,0.0
838,23.250336974737415
839,45.98615769090921
902,23.25
903,26.10080909729004
1051,3966.3662156249243
1313,0.0
1078,2379819.7293749545
2,1, 7, 1, 0, 2,10.00,20.00,Monday
7,22.96446065044354
8,84.0
9,1.0
10,320.0
11,0.0
12,0.0
13,0.0
838,23.250491887392396
839,45.55358865401678
902,23.25
903,26.50418472290039
1051,3906.625700950535
1313,0.0
1078,2343975.420570321
2,1, 7, 1, 0, 2,20.00,30.00,Monday
7,23.004614138183584
8,84.5
9,1.0
10,345.0
11,0.0
12,0.0
13,0.0
838,23.250444421954732
839,45.13200464189445
902,23.25
903,26.602441787719727
1051,3720.677981505223
1313,0.0
1078,2232406.788903134
2,1, 7, 1, 0, 2,30.00,40.00,Monday
7,23.04476762592363
8,85.0
9,1.0
10,10.0
11,0.0
12,0.0
13,0.0
838,23.25041919450329
839,44.71873771741698
902,23.25
903,26.73668670654297
1051,3610.378364721645
1313,0.0
1078,2166227.018832987
2,1, 7, 1, 0, 2,40.00,50.00,Monday
7,23.084921113663672
8,85.5
9,1.0
10,35.0
11,0.0
12,0.0
13,0.0
838,23.250400052517776
839,44.311747463971784
902,23.25
903,26.402652740478516
1051,3522.6759644452027
1313,0.0
1078,2113605.5786671215
2,1, 7, 1, 0, 2,50.00,60.00,Monday
7,23.125074601403718
8,86.0
9,1.0
10,60.0
11,0.0
12,0.0
13,0.0
838,23.250384815979384
839,43.909912027572425
902,23.25
903,26.51689910888672
1051,3452.942749843418
1313,0.0
1078,2071765.6499060506
2,1, 7, 1, 0, 3, 0.00,10.00,Monday
7,23.180935481037974
8,86.33333333333334
9,1.0
10,73.33333333333333
11,0.0
12,0.0
13,0.0
838,23.250372321395325
839,43.51279896409655
902,23.25
903,26.612573623657227
1051,3395.8196702375117
1313,0.0
1078,2037491.802142507
2,1, 7, 1, 0, 3,10.00,20.00,Monday
7,23.23679636067223
8,86.66666666666667
9,1.0
10,86.66666666666666
11,0.0
12,0.0
13,0.0
838,23.25036211544088
839,43.12032236989065
902,23.25
903,26.798002243041992
1051,3351.1301057921355
1313,0.0
1078,2010678.0634752812
2,1, 7, 1, 0, 3,20.00,30.00,Monday
7,23.292657240306482
8,87.0
9,1.0
10,100.0
11,0.0
12,0.0
13,0.0
838,23.250353027279097
839,42.73250187365781
902,23.25
903,26.860517501831055
1051,3312.550689596734
1313,0.0
1078,1987530.4137580406
2,1, 7, 1, 0, 3,30.00,40.00,Monday
7,23.34851811994074
8,87.33333333333334
9,1.0
10,113.33333333333333
11,0.0
12,0.0
13,0.0
838,23.250345006428145
839,42.34934591248728
902,23.25
903,26.923686981201172
1051,3279.7528647558825
1313,0.0
1078,1967851.7188535295
2,1, 7, 1, 0, 3,40.00,50.00,Monday
7,23.404378999574995
8,87.66666666666667
9,1.0
10,126.66666666666667
11,0.0
12,0.0
13,0.0
838,23.25033785156227
839,41.97081282473089
902,23.25
903,26.98338508605957
1051,3251.488293134898
1313,0.0
1078,1950892.9758809388
2,1, 7, 1, 0, 3,50.00,60.00,Monday
7,23.460239879209247
8,88.0
9,1.0
10,140.0
11,0.0
12,0.0
13,0.0
838,23.250331375812443
839,41.596847599593154
902,23.25
903,27.040050506591797
1051,3226.6897196308146
1313,0.0
1078,1936013.8317784888
2,1, 7, 1, 0, 4, 0.00,10.00,Monday
7,23.465213432444408
8,88.33333333333334
9,0.9166666666666667
10,140.0
11,0.0
12,0.0
13,0.0
838,23.25032583698705
839,41.22731840289656
902,23.25
903,27.09381103515625
1051,3212.3018976205667
1313,0.0
1078,1927381.13857234
2,1, 7, 1, 0, 4,10.00,20.00,Monday
7,23.47018698567956
8,88.66666666666667
9,0.8333333333333334
10,140.0
11,0.0
12,0.0
13,0.0
838,23.250320179370373
839,40.86213935530284
902,23.25
903,27.2576904296875
1051,3197.145808398854
1313,0.0
1078,1918287.4850393124
2,1, 7, 1, 0, 4,20.00,30.00,Monday
7,23.475160538914718
8,89.0
9,0.75
10,140.0
11,0.0
12,0.0
13,0.0
838,23.250315301245312
839,40.50123402019808
902,23.25
903,27.291494369506836
1051,3186.9947144330545
1313,0.0
1078,1912196.8286598327
2,1, 7, 1, 0, 4,30.00,40.00,Monday
7,23.480134092149875
8,89.33333333333334
9,0.6666666666666667
10,140.0
11,0.0
12,0.0
13,0.0
838,23.250310309758266
839,40.144552159312035
902,23.25
903,27.330867767333984
1051,3175.6681535569846
1313,0.0
1078,1905400.8921341908
2,1, 7, 1, 0, 4,40.00,50.00,Monday
7,23.485107645385032
8,89.66666666666666
9,0.5833333333333333
10,140.0
11,0.0
12,0.0
13,0.0
838,23.25030570793642
839,39.7920330036158
902,23.25
903,27.36834144592285
1051,3166.633272118857
1313,0.0
1078,1899979.963271314
2,1, 7, 1, 0, 4,50.00,60.00,Monday
7,23.49008119862019
8,90.0
9,0.5
10,140.0
11,0.0
12,0.0
13,0.0
838,23.250301324360024
839,39.443615171303364
902,23.25
903,27.403461456298828
1051,3158.734541679172
1313,0.0
1078,1895240.725007503
2,1, 7, 1, 0, 5, 0.00,10.00,Monday
7,23.437027001570797
8,90.0
9,0.5833333333333334
10,125.0
11,0.0
12,0.0
13,0.0
838,23.250297358206662
839,39.099070072539135
902,23.25
903,27.43672752380371
1051,3155.5242933012764
1313,0.0
1078,1893314.5759807657
2,1, 7, 1, 0, 5,10.00,20.00,Monday
7,23.383972804521402
8,90.0
9,0.6666666666666667
10,110.0
11,0.0
12,0.0
13,0.0
838,23.25029367709297
839,38.75825580228627
902,23.25
903,27.488431930541992
1051,3156.175083102478
1313,0.0
1078,1893705.0498614868
2,1, 7, 1, 0, 5,20.00,30.00,Monday
7,23.330918607472007
8,90.0
9,0.75
10,95.0
11,0.0
12,0.0
13,0.0
838,23.250289838420112
839,38.421121231063665
902,23.25
903,27.434417724609375
1051,3155.855596911733
1313,0.0
1078,1893513.3581470398
2,1, 7, 1, 0, 5,30.00,40.00,Monday
7,23.277864410422616
8,90.0
9,0.8333333333333333
10,80.0
11,0.0
12,0.0
13,0.0
838,23.250286331770287
839,38.08763297962092
902,23.25
903,27.390573501586914
1051,3158.0521634800907
1313,0.0
1078,1894831.2980880544
2,1, 7, 1, 0, 5,40.00,50.00,Monday
7,23.22481021337322
8,90.0
9,0.9166666666666667
10,65.0
11,9.33333333333333
12,0.0
13,0.0
838,23.250282606359246
839,37.75777525185362
902,23.25
903,27.342226028442383
1051,3100.1407520207376
1313,0.0
1078,1860084.4512124427
2,1, 7, 1, 0, 5,50.00,60.00,Monday
7,23.17175601632383
8,90.0
9,1.0
10,50.0
11,13.5
12,0.0
13,0.0
838,23.25027890098111
839,37.43148054708351
902,23.25
903,27.27893829345703
1051,3060.4703584006056
1313,0.0
1078,1836282.2150403634
2,1, 7, 1, 0, 6, 0.00,10.00,Monday
7,23.131332400527043
8,90.16666666666667
9,1.0
10,48.333333333333336
11,17.666666666666668
12,0.0
13,0.0
838,23.250274980654705
839,37.108742218672006
902,23.25
903,27.22613525390625
1051,3019.8011504872643
1313,0.0
1078,1811880.6902923586
2,1, 7, 1, 0, 6,10.00,20.00,Monday
7,23.09090878473026
8,90.33333333333334
9,1.0
10,46.666666666666664
11,21.833333333333336
12,0.0
13,0.0
838,23.250270954602293
839,36.789544713694674
902,23.25
903,27.32964324951172
1051,2977.028621572522
1313,0.0
1078,1786217.1729435131
2,1, 7, 1, 0, 6,20.00,30.00,Monday
7,23.05048516893347
8,90.5
9,1.0
10,45.0
11,26.0
12,0.0
13,0.0
838,23.25026686860248
839,36.4738528340027
902,23.25
903,27.314485549926758
1051,2932.302844236268
1313,0.0
1078,1759381.7065417608
2,1, 7, 1, 0, 6,30.00,40.00,Monday
7,23.010061553136687
8,90.66666666666667
9,1.0
10,43.333333333333336
11,39.33333333333333
12,0.0
13,0.0
838,23.250262644488465
839,36.16160563983967
902,23.25
903,27.316669464111328
1051,2823.325414623398
1313,0.0
1078,1693995.2487740389
2,1, 7, 1, 0, 6,40.00,50.00,Monday
7,22.9696379373399
8,90.83333333333334
9,1.0
10,41.666666666666664
11,52.666666666666664
12,0.0
13,0.0
838,23.250258208319053
839,35.85270125214983
902,23.25
903,27.30316162109375
1051,2683.0649086686194
1313,0.0
1078,1609838.9452011716
2,1, 7, 1, 0, 6,50.00,60.00,Monday
7,22.929214321543114
8,91.0
9,1.0
10,40.0
11,66.0
12,0.0
13,0.0
838,23.250253367754148
839,35.54700184625472
902,23.25
903,27.298233032226563
1051,2530.300281954743
1313,0.0
1078,1518180.1691728455
2,1, 7, 1, 0, 7, 0.00,10.00,Monday
7,23.073005981077607
8,89.83333333333334
9,1.0
10,58.33333333333333
11,79.33333333333334
12,0.0
13,0.0
838,23.24925382810612
839,35.83070637127364
902,23.25
903,27.292675018310547
1051,2079.157269092531
1313,0.0
1078,1247494.3614555185
2,1, 7, 1, 0, 7,10.00,20.00,Monday
7,23.216797640612096
8,88.66666666666667
9,1.0
10,76.66666666666666
11,92.66666666666667
12,0.0
13,0.0
838,23.249285232909575
839,36.44547998616204
902,23.25
903,27.510807037353516
1051,1942.2962953211895
1313,0.0
1078,1165377.7771927137
2,1, 7, 1, 0, 7,20.00,30.00,Monday
7,23.360589300146586
8,87.5
9,1.0
10,95.0
11,106.0
12,0.0
13,0.0
838,23.249357768220687
839,37.129151168446604
902,23.25
903,27.513240814208984
1051,1767.7153539776873
1313,0.0
1078,1060629.2123866123
2,1, 7, 1, 0, 7,30.00,40.00,Monday
7,23.50438095968108
8,86.33333333333334
9,1.0
10,113.33333333333333
11,119.16666666666667
12,1.1666666666666665
13,0.0
838,23.249425816795068
839,37.76614120744269
902,23.25
903,27.552587509155273
1051,1601.8814106551456
1313,0.0
1078,961128.8463930874
2,1, 7, 1, 0, 7,40.00,50.00,Monday
7,23.64817261921557
8,85.16666666666666
9,1.0
10,131.66666666666669
11,132.33333333333331
12,2.333333333333333
13,0.0
838,23.24948263969452
839,38.33803103242525
902,23.25
903,27.577850341796875
1051,1452.0895189785672
1313,0.0
1078,871253.7113871403
2,1, 7, 1, 0, 7,50.00,60.00,Monday
7,23.791964278750058
8,84.0
9,1.0
10,150.0
11,145.5
12,3.5
13,0.0
838,23.249528942965565
839,38.85946512748134
902,23.25
903,27.593286514282227
1051,1371.3809132887272
1313,0.0
1078,822828.5479732363
2,1, 7, 1, 0, 8, 0.00,10.00,Monday
7,23.91274640615864
8,83.16666666666667
9,0.9166666666666667
10,150.0
11,158.66666666666669
12,4.666666666666667
13,0.0
838,23.24956455021711
839,39.34882042227485
902,23.25
903,27.585206985473633
1051,1314.4956506175204
1313,0.0
1078,788697.3903705123
2,1, 7, 1, 0, 8,10.00,20.00,Monday
7,24.03352853356722
8,82.33333333333334
9,0.8333333333333334
10,150.0
11,171.83333333333334
12,5.833333333333334
13,0.0
838,23.249597074665022
839,39.81653846356895
902,23.25
903,27.666458129882813
1051,1256.6807480790783
1313,0.0
1078,754008.4488474469
2,1, 7, 1, 0, 8,20.00,30.00,Monday
7,24.1543106609758
8,81.5
9,0.75
10,150.0
11,185.0
12,7.0
13,0.0
838,23.249628733055786
839,40.266516561326426
902,23.25
903,27.61810302734375
1051,1194.3030909636516
1313,0.0
1078,716581.854578191
2,1, 7, 1, 0, 8,30.00,40.00,Monday
7,24.275092788384377
8,80.66666666666667
9,0.6666666666666667
10,150.0
11,200.5
12,8.666666666666666
13,0.0
838,23.2496603753807
839,40.69949800141681
902,23.25
903,27.58212661743164
1051,1127.8606680967396
1313,0.0
1078,676716.4008580438
2,1, 7, 1, 0, 8,40.00,50.00,Monday
7,24.39587491579296
8,79.83333333333334
9,0.5833333333333333
10,150.0
11,216.0
12,10.333333333333332
13,0.0
838,23.249692343217273
839,41.11532961787755
902,23.25
903,27.52645492553711
1051,1084.9100337910093
1313,0.0
1078,650946.0202746056
2,1, 7, 1, 0, 8,50.00,60.00,Monday
7,24.51665704320154
8,79.0
9,0.5
10,150.0
11,231.5
12,12.0
13,0.0
838,23.249724526986014
839,41.51375467231393
902,23.25
903,27.460018157958984
1051,1059.4259490280338
1313,0.0
1078,635655.5694168203
2,1, 7, 1, 0, 9, 0.00,10.00,Monday
7,24.440728147766514
8,78.16666666666667
9,0.6666666666666667
10,173.33333333333334
11,247.0
12,13.666666666666668
13,20.0
838,23.94155896261868
839,41.08314415346954
902,23.25
903,27.382896423339844
1051,471.2749576853869
1313,0.0
1078,282764.9746112321
2,1, 7, 1, 0, 9,10.00,20.00,Monday
7,24.36479925233149
8,77.33333333333334
9,0.8333333333333334
10,196.66666666666666
11,262.5
12,15.333333333333334
13,20.0
838,24.616730452460082
839,40.82230735694988
902,23.25
903,27.0236759185791
1051,486.4278814566184
1313,0.0
1078,291856.72887397103
2,1, 7, 1, 0, 9,20.00,30.00,Monday
7,24.28887035689646
8,76.5
9,1.0
10,220.0
11,278.0
12,17.0
13,20.0
838,25.178910437628918
839,40.8792661701832
902,23.249999999999993
903,26.607133865356438
1051,546.7819668171958
1313,0.0
1078,328069.18009031756
2,1, 7, 1, 0, 9,30.00,40.00,Monday
7,24.212941461461437
8,75.66666666666666
9,1.1666666666666667
10,243.33333333333331
11,284.0
12,17.5
13,20.0
838,25.6535573213471
839,41.23643302070766
902,21.117225646972663
903,26.15133476257325
1051,961.5779734680451
1313,0.0
1078,576946.7840808269
2,1, 7, 1, 0, 9,40.00,50.00,Monday
7,24.13701256602641
8,74.83333333333334
9,1.3333333333333333
10,266.6666666666667
11,290.0
12,18.0
13,20.0
838,25.857968051584542
839,43.12571630801732
902,19.349990844726563
903,25.861759185791016
1051,1520.9035225702123
1313,0.0
1078,912542.1135421275
2,1, 7, 1, 0, 9,50.00,60.00,Monday
7,24.061083670591383
8,74.0
9,1.5
10,290.0
11,296.0
12,18.5
13,20.0
838,25.767648867694756
839,45.88301210574316
902,18.818172454833984
903,25.75901985168457
1051,1705.560409363559
1313,0.0
1078,1023336.2456181354
2,1, 7, 1, 0,10, 0.00,10.00,Monday
7,24.287610649553876
8,74.0
9,1.5
10,290.0
11,302.0
12,19.0
13,20.0
838,25.746537473536275
839,48.566228749357656
902,19.21401596069336
903,25.743309020996094
1051,2258.6886793892336
1313,0.0
1078,1355213.2076335403
2,1, 7, 1, 0,10,10.00,20.00,Monday
7,24.514137628516373
8,74.0
9,1.5
10,290.0
11,308.0
12,19.5
13,20.0
838,25.707601427455923
839,51.26726098674461
902,19.074989318847656
903,25.701417922973633
1051,2540.6378704660115
1313,0.0
1078,1524382.7222796069
2,1, 7, 1, 0,10,20.00,30.00,Monday
7,24.740664607478863
8,74.0
9,1.5
10,290.0
11,314.0
12,20.0
13,20.0
838,25.689706264220618
839,53.68878039575805
902,19.178791046142578
903,25.68670654296875
1051,2679.6639050667095
1313,0.0
1078,1607798.3430400258
2,1, 7, 1, 0,10,30.00,40.00,Monday
7,24.96719158644136
8,74.0
9,1.5
10,290.0
11,323.3333333333333
12,22.666666666666664
13,20.0
838,25.67345477970676
839,55.88623320002419
902,19.125789642333984
903,25.670686721801758
1051,2873.8069553239634
1313,0.0
1078,1724284.1731943781
2,1, 7, 1, 0,10,40.00,50.00,Monday
7,25.193718565403852
8,74.0
9,1.5
10,290.0
11,332.66666666666663
12,25.333333333333332
13,20.0
838,25.673997537563007
839,57.818144755030964
902,19.055744171142578
903,25.6739559173584
1051,3008.7343681030684
1313,0.0
1078,1805240.620861841
2,1, 7, 1, 0,10,50.00,60.00,Monday
7,25.420245544366345
8,74.0
9,1.5
10,290.0
11,342.0
12,28.0
13,20.0
838,25.679275468013
839,59.49677572270695
902,18.884906768798828
903,25.680002212524414
1051,3178.631588908126
1313,0.0
1078,1907178.9533448757
2,1, 7, 1, 0,11, 0.00,10.00,Monday
7,25.294466022407267
8,74.0
9,1.6833333333333333
10,265.0
11,351.3333333333333
12,30.666666666666668
13,20.0
838,25.688942404273607
839,60.70585936884064
902,18.72371482849121
903,25.690608978271484
1051,3442.8735867747287
1313,0.0
1078,2065724.1520648373
2,1, 7, 1, 0,11,10.00,20.00,Monday
7,25.16868650044818
8,74.0
9,1.8666666666666667
10,240.0
11,360.6666666666667
12,33.333333333333336
13,20.0
838,25.691585711582913
839,61.45470486504709
902,18.548425674438477
903,25.692655563354492
1051,3701.6457581558157
1313,0.0
1078,2220987.4548934894
2,1, 7, 1, 0,11,20.00,30.00,Monday
7,25.0429069784891
8,74.0
9,2.05
10,215.0
11,370.0
12,36.0
13,20.0
838,25.67683234531923
839,61.842004963953535
902,18.564002990722656
903,25.675914764404297
1051,3986.4811458992376
1313,0.0
1078,2391888.6875395426
2,1, 7, 1, 0,11,30.00,40.00,Monday
7,24.917127456530018
8,74.0
9,2.2333333333333334
10,190.0
11,375.83333333333337
12,37.0
13,20.0
838,25.66733965958694
839,61.95967798206292
902,18.599687576293945
903,25.6672306060791
1051,4112.257292152722
1313,0.0
1078,2467354.375291633
2,1, 7, 1, 0,11,40.00,50.00,Monday
7,24.791347934570936
8,74.0
9,2.416666666666667
10,165.0
11,381.66666666666663
12,38.0
13,20.0
838,25.661071467685534
839,61.930837387888126
902,18.54042625427246
903,25.66145896911621
1051,4213.735543290861
1313,0.0
1078,2528241.3259745166
2,1, 7, 1, 0,11,50.00,60.00,Monday
7,24.665568412611858
8,74.0
9,2.6
10,140.0
11,387.5
12,39.0
13,20.0
838,25.65939710526383
839,61.8313511175928
902,18.46329689025879
903,25.660411834716797
1051,4243.450996103731
1313,0.0
1078,2546070.597662239
2,1, 7, 1, 0,12, 0.00,10.00,Monday
7,24.736338837993372
8,74.83333333333334
9,2.416666666666667
10,136.66666666666666
11,393.33333333333337
12,40.0
13,16.0
838,25.662954508701745
839,61.707363936386585
902,18.327953338623047
903,25.664371490478516
1051,3983.0223886090457
1313,0.0
1078,2389813.4331654273
2,1, 7, 1, 0,12,10.00,20.00,Monday
7,24.807109263374887
8,75.66666666666667
9,2.2333333333333334
10,133.33333333333334
11,399.16666666666663
12,41.0
13,16.0
838,25.69164619309473
839,61.60381630037093
902,17.752689361572266
903,25.696086883544922
1051,3923.1088389889383
1313,0.0
1078,2353865.303393363
2,1, 7, 1, 0,12,20.00,30.00,Monday
7,24.877879688756398
8,76.5
9,2.05
10,130.0
11,405.0
12,42.0
13,16.0
838,25.7255644772837
839,61.749594170252465
902,17.763477325439453
903,25.730628967285156
1051,3549.9182932591507
1313,0.0
1078,2129950.9759554905
2,1, 7, 1, 0,12,30.00,40.00,Monday
7,24.948650114137912
8,77.33333333333333
9,1.8666666666666667
10,126.66666666666667
11,396.16666666666663
12,38.833333333333336
13,16.0
838,25.775207709035527
839,61.9466793247937
902,17.451187133789063
903,25.78217315673828
1051,3436.2912161731715
1313,0.0
1078,2061774.729703903
2,1, 7, 1, 0,12,40.00,50.00,Monday
7,25.019420539519423
8,78.16666666666667
9,1.6833333333333331
10,123.33333333333333
11,387.33333333333337
12,35.66666666666667
13,16.0
838,25.77390844953869
839,62.27442921946522
902,17.56649398803711
903,25.7744197845459
1051,3649.4538787644588
1313,0.0
1078,2189672.3272586754
2,1, 7, 1, 0,12,50.00,60.00,Monday
7,25.090190964900938
8,79.0
9,1.5
10,120.0
11,378.5
12,32.5
13,16.0
838,25.76471444077025
839,62.54833738618949
902,17.906627655029297
903,25.76421546936035
1051,3691.580899938228
1313,0.0
1078,2214948.5399629367
2,1, 7, 1, 0,13, 0.00,10.00,Monday
7,25.157589471167743
8,79.00000000000001
9,1.6
10,120.0
11,369.66666666666663
12,29.333333333333332
13,8.0
838,25.766268230054028
839,62.42518427295023
902,18.13759994506836
903,25.767061233520508
1051,2996.7946487419267
1313,0.0
1078,1798076.789245156
2,1, 7, 1, 0,13,10.00,20.00,Monday
7,25.224987977434548
8,79.0
9,1.7
10,120.0
11,360.83333333333337
12,26.166666666666664
13,8.0
838,25.730645276968783
839,62.297874366750186
902,16.78965950012207
903,25.72715187072754
1051,3095.4252993322343
1313,0.0
1078,1857255.1795993405
2,1, 7, 1, 0,13,20.00,30.00,Monday
7,25.29238648370135
8,79.0
9,1.8
10,120.0
11,352.0
12,23.0
13,8.0
838,25.748492182886284
839,62.02199982617845
902,17.224517822265625
903,25.75088119506836
1051,2858.9795811836184
1313,0.0
1078,1715387.748710171
2,1, 7, 1, 0,13,30.00,40.00,Monday
7,25.359784989968155
8,79.0
9,1.9
10,120.0
11,349.33333333333337
12,23.5
13,8.0
838,25.742310278873656
839,61.919699422892094
902,16.98155975341797
903,25.742109298706055
1051,2877.1437512012158
1313,0.0
1078,1726286.2507207296
2,1, 7, 1, 0,13,40.00,50.00,Monday
7,25.427183496234957
8,79.0
9,2.0
10,120.0
11,346.66666666666663
12,24.0
13,8.0
838,25.74222057319707
839,61.80834555635614
902,16.976743698120117
903,25.742712020874023
1051,2812.849666115116
1313,0.0
1078,1687709.7996690697
2,1, 7, 1, 0,13,50.00,60.00,Monday
7,25.49458200250176
8,79.0
9,2.1
10,120.0
11,344.0
12,24.5
13,8.0
838,25.742327330002713
839,61.69947358985771
902,16.873964309692383
903,25.742830276489258
1051,2795.6507568994334
1313,0.0
1078,1677390.45413966
2,1, 7, 1, 0,14, 0.00,10.00,Monday
7,25.50797262673364
8,79.00000000000001
9,2.1833333333333336
10,120.0
11,341.33333333333337
12,25.0
13,16.0
838,25.740553973648094
839,62.03989934797015
902,16.815738677978516
903,25.74080467224121
1051,3263.3765785356813
1313,0.0
1078,1958025.9471214088
2,1, 7, 1, 0,14,10.00,20.00,Monday
7,25.52136325096552
8,79.0
9,2.2666666666666666
10,120.0
11,338.66666666666663
12,25.5
13,16.0
838,25.785563360215868
839,62.37904857731119
902,17.605484008789063
903,25.791505813598633
1051,3042.750227651838
1313,0.0
1078,1825650.136591103
2,1, 7, 1, 0,14,20.00,30.00,Monday
7,25.534753875197403
8,79.0
9,2.35
10,120.0
11,336.0
12,26.0
13,16.0
838,25.76775913125901
839,62.84664226409734
902,17.249488830566406
903,25.766115188598633
1051,3309.276078948913
1313,0.0
1078,1985565.6473693477
2,1, 7, 1, 0,14,30.00,40.00,Monday
7,25.548144499429277
8,79.0
9,2.4333333333333336
10,120.0
11,318.0
12,22.833333333333336
13,16.0
838,25.748948426058465
839,63.17302604837295
902,17.503440856933594
903,25.747291564941406
1051,3251.068385731673
1313,0.0
1078,1950641.0314390038
2,1, 7, 1, 0,14,40.00,50.00,Monday
7,25.561535123661162
8,79.0
9,2.516666666666667
10,120.0
11,300.0
12,19.666666666666668
13,16.0
838,25.71803982104212
839,63.42657053153717
902,17.682849884033203
903,25.714778900146484
1051,3364.3257654533327
1313,0.0
1078,2018595.4592719995
2,1, 7, 1, 0,14,50.00,60.00,Monday
7,25.57492574789304
8,79.0
9,2.6
10,120.0
11,282.0
12,16.5
13,16.0
838,25.684289624189443
839,63.616629380319644
902,17.98131561279297
903,25.680644989013672
1051,3379.9095243301026
1313,0.0
1078,2027945.7145980615
2,1, 7, 1, 0,15, 0.00,10.00,Monday
7,25.444172710266532
8,79.83333333333334
9,2.85
10,125.0
11,264.0
12,13.333333333333332
13,20.0
838,25.653769316292824
839,63.93078448879118
902,18.211397171020508
903,25.650386810302734
1051,3523.945225258944
1313,0.0
1078,2114367.1351553663
2,1, 7, 1, 0,15,10.00,20.00,Monday
7,25.313419672640016
8,80.66666666666667
9,3.1
10,130.0
11,246.0
12,10.166666666666666
13,20.0
838,25.647599051299895
839,64.19740063688174
902,18.787822723388672
903,25.647647857666016
1051,3402.366964484323
1313,0.0
1078,2041420.1786905937
2,1, 7, 1, 0,15,20.00,30.00,Monday
7,25.182666635013504
8,81.5
9,3.3499999999999996
10,135.0
11,228.0
12,7.0
13,20.0
838,25.600781799340226
839,64.52916964479768
902,18.963764190673828
903,25.59497833251953
1051,3572.409040821445
1313,0.0
1078,2143445.424492867
2,1, 7, 1, 0,15,30.00,40.00,Monday
7,25.051913597386992
8,82.33333333333334
9,3.5999999999999996
10,140.0
11,234.0
12,10.0
13,20.0
838,25.566939921231935
839,64.73489339651468
902,19.488107681274414
903,25.563106536865234
1051,3538.1091400164205
1313,0.0
1078,2122865.484009852
2,1, 7, 1, 0,15,40.00,50.00,Monday
7,24.92116055976048
8,83.16666666666666
9,3.8499999999999996
10,145.0
11,240.0
12,13.0
13,20.0
838,25.56131227484381
839,64.80841064647358
902,19.444093704223633
903,25.561508178710938
1051,3497.0309715222506
1313,0.0
1078,2098218.5829133503
2,1, 7, 1, 0,15,50.00,60.00,Monday
7,24.79040752213397
8,84.0
9,4.1
10,150.0
11,246.0
12,16.0
13,20.0
838,25.560025395933856
839,64.85678353562867
902,19.439695358276367
903,25.56083869934082
1051,3513.064231615036
1313,0.0
1078,2107838.5389690218
2,1, 7, 1, 0,16, 0.00,10.00,Monday
7,24.614403775437385
8,84.83333333333333
9,4.1
10,151.66666666666666
11,252.0
12,19.0
13,20.0
838,25.559268720718677
839,64.95208512739752
902,19.443660736083984
903,25.560117721557617
1051,3274.182314673388
1313,0.0
1078,1964509.388804033
2,1, 7, 1, 0,16,10.00,20.00,Monday
7,24.4384000287408
8,85.66666666666667
9,4.1
10,153.33333333333334
11,258.0
12,22.000000000000004
13,20.0
838,25.62016425891605
839,64.90356577452056
902,19.304256439208984
903,25.628557205200195
1051,2961.840900065292
1313,0.0
1078,1777104.5400391752
2,1, 7, 1, 0,16,20.00,30.00,Monday
7,24.262396282044215
8,86.5
9,4.1
10,155.0
11,264.0
12,25.0
13,20.0
838,25.627132209945756
839,65.02961678916729
902,19.196533203125
903,25.629009246826172
1051,3168.556484641512
1313,0.0
1078,1901133.8907849072
2,1, 7, 1, 0,16,30.00,40.00,Monday
7,24.086392535347628
8,87.33333333333333
9,4.1
10,156.66666666666666
11,240.0
12,20.833333333333336
13,20.0
838,25.644469784505525
839,65.09058036892611
902,19.471189498901367
903,25.647605895996094
1051,2938.487653210356
1313,0.0
1078,1763092.5919262136
2,1, 7, 1, 0,16,40.00,50.00,Monday
7,23.91038878865104
8,88.16666666666667
9,4.1
10,158.33333333333334
11,216.00000000000003
12,16.666666666666668
13,20.0
838,25.619501750432224
839,65.24307836251997
902,19.890174865722656
903,25.617231369018555
1051,3039.2537274989713
1313,0.0
1078,1823552.2364993829
2,1, 7, 1, 0,16,50.00,60.00,Monday
7,23.734385041954454
8,89.0
9,4.1
10,160.0
11,192.0
12,12.5
13,20.0
838,25.61603107714079
839,65.27883589033773
902,20.57181739807129
903,25.616615295410156
1051,2846.5725206231023
1313,0.0
1078,1707943.5123738614
2,1, 7, 1, 0,17, 0.00,10.00,Monday
7,23.72639712212037
8,89.83333333333334
9,3.933333333333333
10,156.66666666666666
11,168.0
12,8.333333333333332
13,20.0
838,25.61147822244457
839,65.24212125920052
902,21.003463745117188
903,25.61205291748047
1051,2621.829596483827
1313,0.0
1078,1573097.7578902962
2,1, 7, 1, 0,17,10.00,20.00,Monday
7,23.71840920228629
8,90.66666666666667
9,3.7666666666666666
10,153.33333333333334
11,144.0
12,4.166666666666666
13,20.0
838,25.69379880045122
839,64.7792030814863
902,21.232032775878906
903,25.703269958496094
1051,2357.8056135052243
1313,0.0
1078,1414683.3681031344
2,1, 7, 1, 0,17,20.00,30.00,Monday
7,23.710421282452206
8,91.5
9,3.5999999999999996
10,150.0
11,120.0
12,0.0
13,20.0
838,25.69407554721369
839,64.63763481627669
902,21.40489387512207
903,25.695226669311523
1051,2472.652436683003
1313,0.0
1078,1483591.4620098018
2,1, 7, 1, 0,17,30.00,40.00,Monday
7,23.702433362618123
8,92.33333333333334
9,3.433333333333333
10,146.66666666666666
11,113.16666666666666
12,0.0
13,20.0
838,25.7500729551593
839,64.26166870173347
902,21.988235473632813
903,25.756752014160156
1051,2237.9374422780606
1313,0.0
1078,1342762.4653668364
2,1, 7, 1, 0,17,40.00,50.00,Monday
7,23.69444544278404
8,93.16666666666667
9,3.2666666666666666
10,143.33333333333334
11,106.33333333333334
12,0.0
13,20.0
838,25.768997263045026
839,64.06428844471405
902,21.9405517578125
903,25.7721004486084
1051,2309.5061711710073
1313,0.0
1078,1385703.7027026045
2,1, 7, 1, 0,17,50.00,60.00,Monday
7,23.686457522949958
8,94.0
9,3.1
10,140.0
11,99.5
12,0.0
13,20.0
838,25.82277076882423
839,63.7489409247483
902,22.245216369628906
903,25.829055786132813
1051,2157.5786182264637
1313,0.0
1078,1294547.1709358783
2,1, 7, 1, 0,18, 0.00,10.00,Monday
7,23.522512352648047
8,94.00000000000001
9,2.9333333333333336
10,141.66666666666666
11,92.66666666666666
12,0.0
13,20.0
838,25.852890956250818
839,63.51537704218042
902,22.285053253173828
903,25.85701560974121
1051,2157.7063729695915
1313,0.0
1078,1294623.8237817548
2,1, 7, 1, 0,18,10.00,20.00,Monday
7,23.358567182346135
8,94.0
9,2.7666666666666666
10,143.33333333333334
11,85.83333333333334
12,0.0
13,20.0
838,25.96381672970978
839,62.95394157840474
902,22.365737915039063
903,25.974308013916016
1051,1880.1992495214915
1313,0.0
1078,1128119.549712895
2,1, 7, 1, 0,18,20.00,30.00,Monday
7,23.19462201204422
8,94.0
9,2.6
10,145.0
11,79.0
12,0.0
13,20.0
838,25.948685136288084
839,62.85356462988483
902,22.26551055908203
903,25.948291778564453
1051,2111.420123990383
1313,0.0
1078,1266852.0743942298
2,1, 7, 1, 0,18,30.00,40.00,Monday
7,23.03067684174231
8,94.0
9,2.4333333333333336
10,146.66666666666666
11,68.00000000000001
12,0.0
13,20.0
838,26.01268776859771
839,62.42819761801477
902,22.75896453857422
903,26.020950317382813
1051,1828.590289636649
1313,0.0
1078,1097154.1737819894
2,1, 7, 1, 0,18,40.00,50.00,Monday
7,22.866731671440398
8,94.0
9,2.2666666666666666
10,148.33333333333334
11,57.0
12,0.0
13,20.0
838,26.033765295415506
839,62.142124344152286
902,22.787559509277344
903,26.03774070739746
1051,1916.8665523452357
1313,0.0
1078,1150119.9314071415
2,1, 7, 1, 0,18,50.00,60.00,Monday
7,22.702786501138483
8,94.0
9,2.1
10,150.0
11,46.0
12,0.0
13,20.0
838,26.08440884005987
839,61.73594789731296
902,23.14215850830078