Program Version,EnergyPlus, Version 24.1.0-9d7789a3ac, YMD=2025.08.14 13:26
1,5,Environment Title[],Latitude[deg],Longitude[deg],Time Zone[],Elevation[m]
2,8,Day of Simulation[],Month[],Day of Month[],DST Indicator[1=yes 0=no],Hour[],StartMinute[],EndMinute[],DayType
3,5,Cumulative Day of Simulation[],Month[],Day of Month[],DST Indicator[1=yes 0=no],DayType  ! When Daily Report Variables Requested
4,2,Cumulative Days of Simulation[],Month[]  ! When Monthly Report Variables Requested
5,1,Cumulative Days of Simulation[] ! When Run Period Report Variables Requested
6,1,Calendar Year of Simulation[] ! When Annual Report Variables Requested
7,1,Environment,Site Outdoor Air Drybulb Temperature [C] !TimeStep
8,1,Environment,Site Outdoor Air Relative Humidity [%] !TimeStep
9,1,Environment,Site Wind Speed [m/s] !TimeStep
10,1,Environment,Site Wind Direction [deg] !TimeStep
11,1,Environment,Site Diffuse Solar Radiation Rate per Area [W/m2] !TimeStep
12,1,Environment,Site Direct Solar Radiation Rate per Area [W/m2] !TimeStep
13,1,SPACE5-1,Zone People Occupant Count [] !TimeStep
838,1,SPACE5-1,Zone Air Temperature [C] !TimeStep
839,1,SPACE5-1,Zone Air Relative Humidity [%] !TimeStep
902,1,SPACE5-1,Zone Thermostat Heating Setpoint Temperature [C] !TimeStep
903,1,SPACE5-1,Zone Thermostat Cooling Setpoint Temperature [C] !TimeStep
1051,1,Whole Building,Facility Total HVAC Electricity Demand Rate [W] !TimeStep
1313,1,Site,Environmental Impact Total CO2 Emissions Carbon Equivalent Mass [kg] !TimeStep
1078,1,Electricity:HVAC [J] !TimeStep
End of Data Dictionary
1,RUNPERIOD 1,  35.25, 136.93,   9.00,  17.00
2,1, 7, 1, 0, 1, 0.00,10.00,Monday
7,23.579622186576305
8,88.0
9,2.3333333333333335
10,195.0
11,0.0
12,0.0
13,0.0
838,21.423441613770844
839,53.56223907610153
902,12.8
903,40.0
1051,484.86458981459805
1313,0.0
1078,290918.75388875883
2,1, 7, 1, 0, 1,10.00,20.00,Monday
7,23.626406050191836
8,87.0
9,2.066666666666667
10,210.0
11,0.0
12,0.0
13,0.0
838,21.952972597615545
839,51.58345185087154
902,23.25
903,28.04131507873535
1051,7241.88814889888
1313,0.0
1078,4345132.889339328
2,1, 7, 1, 0, 1,20.00,30.00,Monday
7,23.673189913807366
8,86.0
9,1.8
10,225.0
11,0.0
12,0.0
13,0.0
838,22.44893584842673
839,49.765174029109616
902,23.249999999999993
903,26.358818054199205
1051,5183.062563868211
1313,0.0
1078,3109837.538320928
2,1, 7, 1, 0, 1,30.00,40.00,Monday
7,23.719973777422897
8,85.0
9,1.5333333333333334
10,240.0
11,0.0
12,0.0
13,0.0
838,22.815163633313745
839,48.36768596155832
902,23.250000000000007
903,25.54159355163575
1051,4778.885984726807
1313,0.0
1078,2867331.590836084
2,1, 7, 1, 0, 1,40.00,50.00,Monday
7,23.766757641038428
8,84.0
9,1.2666666666666666
10,255.0
11,0.0
12,0.0
13,0.0
838,23.087868971044205
839,47.1855430199758
902,23.25
903,26.64195442199707
1051,4717.7727796840545
1313,0.0
1078,2830663.6678104326
2,1, 7, 1, 0, 1,50.00,60.00,Monday
7,23.81354150465396
8,83.0
9,1.0
10,270.0
11,0.0
12,0.0
13,0.0
838,23.245790342419372
839,46.307323315010464
902,23.25
903,26.260433197021484
1051,4348.476432824129
1313,0.0
1078,2609085.859694477
2,1, 7, 1, 0, 2, 0.00,10.00,Monday
7,23.87214989187658
8,83.5
9,1.0
10,295.0
11,0.0
12,0.0
13,0.0
838,23.250337373404868
839,45.8576120399818
902,23.25
903,27.107614517211914
1051,3869.6897609281177
1313,0.0
1078,2321813.8565568705
2,1, 7, 1, 0, 2,10.00,20.00,Monday
7,23.93075827909921
8,84.0
9,1.0
10,320.0
11,0.0
12,0.0
13,0.0
838,23.250486503117646
839,45.428464974286456
902,23.25
903,27.035964965820313
1051,3795.690054074636
1313,0.0
1078,2277414.0324447816
2,1, 7, 1, 0, 2,20.00,30.00,Monday
7,23.989366666321835
8,84.5
9,1.0
10,345.0
11,0.0
12,0.0
13,0.0
838,23.250439564800867
839,45.0102564473694
902,23.25
903,27.033344268798828
1051,3601.258535040485
1313,0.0
1078,2160755.121024291
2,1, 7, 1, 0, 2,30.00,40.00,Monday
7,24.047975053544455
8,85.0
9,1.0
10,10.0
11,0.0
12,0.0
13,0.0
838,23.250414352989033
839,44.60026034804986
902,23.25
903,26.697925567626953
1051,3481.753515388561
1313,0.0
1078,2089052.1092331365
2,1, 7, 1, 0, 2,40.00,50.00,Monday
7,24.106583440767086
8,85.5
9,1.0
10,35.0
11,0.0
12,0.0
13,0.0
838,23.250395147011474
839,44.19639612100804
902,23.25
903,26.834030151367188
1051,3384.850468533166
1313,0.0
1078,2030910.2811198996
2,1, 7, 1, 0, 2,50.00,60.00,Monday
7,24.16519182798971
8,86.0
9,1.0
10,60.0
11,0.0
12,0.0
13,0.0
838,23.250379813740583
839,43.797494330892484
902,23.25
903,26.067171096801758
1051,3306.0832992391247
1313,0.0
1078,1983649.9795434747
2,1, 7, 1, 0, 3, 0.00,10.00,Monday
7,24.18206745000345
8,86.33333333333334
9,1.0
10,73.33333333333333
11,0.0
12,0.0
13,0.0
838,23.250367320212433
839,43.40300716455456
902,23.25
903,26.694976806640625
1051,3246.2239791752045
1313,0.0
1078,1947734.3875051227
2,1, 7, 1, 0, 3,10.00,20.00,Monday
7,24.198943072017187
8,86.66666666666667
9,1.0
10,86.66666666666666
11,0.0
12,0.0
13,0.0
838,23.250356756624093
839,43.01277355469439
902,23.25
903,27.755605697631836
1051,3197.273275225594
1313,0.0
1078,1918363.9651353564
2,1, 7, 1, 0, 3,20.00,30.00,Monday
7,24.215818694030926
8,87.0
9,1.0
10,100.0
11,0.0
12,0.0
13,0.0
838,23.250347991761444
839,42.626774954168695
902,23.25
903,27.643314361572266
1051,3159.0292723463435
1313,0.0
1078,1895417.5634078062
2,1, 7, 1, 0, 3,30.00,40.00,Monday
7,24.232694316044665
8,87.33333333333334
9,1.0
10,113.33333333333333
11,0.0
12,0.0
13,0.0
838,23.250340024606892
839,42.24501641703575
902,23.25
903,26.919050216674805
1051,3125.649012632385
1313,0.0
1078,1875389.407579431
2,1, 7, 1, 0, 3,40.00,50.00,Monday
7,24.249569938058407
8,87.66666666666667
9,1.0
10,126.66666666666667
11,0.0
12,0.0
13,0.0
838,23.250332878973257
839,41.86747889926176
902,23.25
903,27.630168914794922
1051,3097.196416505131
1313,0.0
1078,1858317.8499030785
2,1, 7, 1, 0, 3,50.00,60.00,Monday
7,24.266445560072142
8,88.0
9,1.0
10,140.0
11,0.0
12,0.0
13,0.0
838,23.250326413004235
839,41.49411547171981
902,23.25
903,27.355663299560547
1051,3072.7464377532083
1313,0.0
1078,1843647.862651925
2,1, 7, 1, 0, 4, 0.00,10.00,Monday
7,24.317583059436014
8,88.33333333333334
9,0.9166666666666667
10,140.0
11,0.0
12,0.0
13,0.0
838,23.25032041506473
839,41.124915486304864
902,23.25
903,27.012632369995117
1051,3048.617356974707
1313,0.0
1078,1829170.4141848243
2,1, 7, 1, 0, 4,10.00,20.00,Monday
7,24.36872055879988
8,88.66666666666667
9,0.8333333333333334
10,140.0
11,0.0
12,0.0
13,0.0
838,23.250314834731373
839,40.75985002222113
902,23.25
903,27.293659210205078
1051,3027.218468930487
1313,0.0
1078,1816331.0813582921
2,1, 7, 1, 0, 4,20.00,30.00,Monday
7,24.419858058163747
8,89.0
9,0.75
10,140.0
11,0.0
12,0.0
13,0.0
838,23.25030958793923
839,40.39888843209497
902,23.25
903,27.712478637695313
1051,3007.72693725755
1313,0.0
1078,1804636.16235453
2,1, 7, 1, 0, 4,30.00,40.00,Monday
7,24.470995557527615
8,89.33333333333334
9,0.6666666666666667
10,140.0
11,0.0
12,0.0
13,0.0
838,23.25030460969195
839,40.04198424770829
902,23.25
903,27.970088958740234
1051,2989.6987190670197
1313,0.0
1078,1793819.2314402119
2,1, 7, 1, 0, 4,40.00,50.00,Monday
7,24.522133056891484
8,89.66666666666666
9,0.5833333333333333
10,140.0
11,0.0
12,0.0
13,0.0
838,23.25029985040011
839,39.68909923886858
902,23.25
903,27.33821678161621
1051,2972.8101207177056
1313,0.0
1078,1783686.0724306232
2,1, 7, 1, 0, 4,50.00,60.00,Monday
7,24.573270556255356
8,90.0
9,0.5
10,140.0
11,0.0
12,0.0
13,0.0
838,23.25029527248699
839,39.340194736066074
902,23.25
903,27.04505729675293
1051,2956.812365632728
1313,0.0
1078,1774087.4193796369
2,1, 7, 1, 0, 5, 0.00,10.00,Monday
7,24.62387448748119
8,90.0
9,0.5833333333333334
10,125.0
11,0.0
12,0.0
13,0.0
838,23.250290997672145
839,38.99512652193956
902,23.25
903,27.135040283203125
1051,2940.93342473406
1313,0.0
1078,1764560.054840436
2,1, 7, 1, 0, 5,10.00,20.00,Monday
7,24.67447841870702
8,90.0
9,0.6666666666666667
10,110.0
11,0.0
12,0.0
13,0.0
838,23.250286849160247
839,38.65380299277493
902,23.25
903,28.092308044433594
1051,2925.4542329941382
1313,0.0
1078,1755272.539796483
2,1, 7, 1, 0, 5,20.00,30.00,Monday
7,24.725082349932855
8,90.0
9,0.75
10,95.0
11,0.0
12,0.0
13,0.0
838,23.25028280183939
839,38.31617071806824
902,23.25
903,26.66118621826172
1051,2910.3230892706847
1313,0.0
1078,1746193.8535624107
2,1, 7, 1, 0, 5,30.00,40.00,Monday
7,24.775686281158684
8,90.0
9,0.8333333333333333
10,80.0
11,0.0
12,0.0
13,0.0
838,23.250278843380407
839,37.982202135466395
902,23.25
903,27.6539249420166
1051,2895.460489427495
1313,0.0
1078,1737276.2936564968
2,1, 7, 1, 0, 5,40.00,50.00,Monday
7,24.82629021238452
8,90.0
9,0.9166666666666667
10,65.0
11,9.33333333333333
12,0.0
13,0.0
838,23.250274710124664
839,37.651868501256466
902,23.25
903,26.655845642089844
1051,2818.0642338153084
1313,0.0
1078,1690838.540289185
2,1, 7, 1, 0, 5,50.00,60.00,Monday
7,24.87689414361035
8,90.0
9,1.0
10,50.0
11,13.5
12,0.0
13,0.0
838,23.25027069721337
839,37.325090838730596
902,23.25
903,27.440067291259766
1051,2762.0921058609874
1313,0.0
1078,1657255.2635165923
2,1, 7, 1, 0, 6, 0.00,10.00,Monday
7,24.89200567705459
8,90.16666666666667
9,1.0
10,48.333333333333336
11,17.666666666666668
12,0.0
13,0.0
838,23.250266472987725
839,37.001795226545156
902,23.25
903,27.594112396240234
1051,2708.1762183949813
1313,0.0
1078,1624905.7310369888
2,1, 7, 1, 0, 6,10.00,20.00,Monday
7,24.907117210498825
8,90.33333333333334
9,1.0
10,46.666666666666664
11,21.833333333333336
12,0.0
13,0.0
838,23.250262128296455
839,36.68193564387213
902,23.25
903,27.743080139160156
1051,2652.0522951983353
1313,0.0
1078,1591231.3771190012
2,1, 7, 1, 0, 6,20.00,30.00,Monday
7,24.922228743943066
8,90.5
9,1.0
10,45.0
11,26.0
12,0.0
13,0.0
838,23.250257721278874
839,36.36545660670627
902,23.25
903,26.65566062927246
1051,2594.2907249853665
1313,0.0
1078,1556574.4349912198
2,1, 7, 1, 0, 6,30.00,40.00,Monday
7,24.9373402773873
8,90.66666666666667
9,1.0
10,43.333333333333336
11,39.33333333333333
12,0.0
13,0.0
838,23.2502531250271
839,36.05229882557505
902,23.25
903,28.17069435119629
1051,2471.105542226516
1313,0.0
1078,1482663.3253359094
2,1, 7, 1, 0, 6,40.00,50.00,Monday
7,24.95245181083154
8,90.83333333333334
9,1.0
10,41.666666666666664
11,52.666666666666664
12,0.0
13,0.0
838,23.250248365380322
839,35.7423356697387
902,23.25
903,26.68935775756836
1051,2317.4675210647224
1313,0.0
1078,1390480.5126388334
2,1, 7, 1, 0, 6,50.00,60.00,Monday
7,24.967563344275778
8,91.0
9,1.0
10,40.0
11,66.0
12,0.0
13,0.0
838,23.25024301748314
839,35.435405153651196
902,23.25
903,26.968318939208984
1051,2202.0907292911656
1313,0.0
1078,1321254.4375746995
2,1, 7, 1, 0, 7, 0.00,10.00,Monday
7,25.15774682854738
8,89.83333333333334
9,1.0
10,58.33333333333333
11,79.33333333333334
12,0.0
13,0.0
838,23.249134626451912
839,35.812438658294305
902,23.25
903,27.89803123474121
1051,1743.5981355469883
1313,0.0
1078,1046158.881328193
2,1, 7, 1, 0, 7,10.00,20.00,Monday
7,25.34793031281899
8,88.66666666666667
9,1.0
10,76.66666666666666
11,92.66666666666667
12,0.0
13,0.0
838,23.249168690982117
839,36.57575997395512
902,23.25
903,27.367631912231445
1051,1611.6308199675175
1313,0.0
1078,966978.4919805105
2,1, 7, 1, 0, 7,20.00,30.00,Monday
7,25.538113797090595
8,87.5
9,1.0
10,95.0
11,106.0
12,0.0
13,0.0
838,23.24925078159812
839,37.42151234592219
902,23.25
903,27.619720458984375
1051,1433.26129071431
1313,0.0
1078,859956.774428586
2,1, 7, 1, 0, 7,30.00,40.00,Monday
7,25.7282972813622
8,86.33333333333334
9,1.0
10,113.33333333333333
11,119.16666666666667
12,1.1666666666666665
13,0.0
838,23.249327687427567
839,38.21540962969891
902,23.25
903,27.29645538330078
1051,1349.1208076611929
1313,0.0
1078,809472.4845967158
2,1, 7, 1, 0, 7,40.00,50.00,Monday
7,25.918480765633802
8,85.16666666666666
9,1.0
10,131.66666666666669
11,132.33333333333331
12,2.333333333333333
13,0.0
838,23.249392552822737
839,38.9357615144552
902,23.25
903,27.186609268188477
1051,1290.8173260830356
1313,0.0
1078,774490.3956498214
2,1, 7, 1, 0, 7,50.00,60.00,Monday
7,26.10866424990541
8,84.0
9,1.0
10,150.0
11,145.5
12,3.5
13,0.0
838,23.24944648725802
839,39.59925733356645
902,23.25
903,28.28057098388672
1051,1232.5193964943119
1313,0.0
1078,739511.6378965871
2,1, 7, 1, 0, 8, 0.00,10.00,Monday
7,26.160140702997097
8,83.16666666666667
9,0.9166666666666667
10,150.0
11,158.66666666666669
12,4.666666666666667
13,0.0
838,23.249497183304044
839,40.22179311785051
902,23.25
903,27.66177749633789
1051,1171.27914364036
1313,0.0
1078,702767.486184216
2,1, 7, 1, 0, 8,10.00,20.00,Monday
7,26.21161715608879
8,82.33333333333334
9,0.8333333333333334
10,150.0
11,171.83333333333334
12,5.833333333333334
13,0.0
838,23.249544545779095
839,40.81245801191605
902,23.25
903,27.878753662109375
1051,1140.1516298876397
1313,0.0
1078,684090.9779325838
2,1, 7, 1, 0, 8,20.00,30.00,Monday
7,26.263093609180473
8,81.5
9,0.75
10,150.0
11,185.0
12,7.0
13,0.0
838,23.24959005432911
839,41.37523431334264
902,23.25
903,27.848804473876953
1051,1115.714734636139
1313,0.0
1078,669428.8407816833
2,1, 7, 1, 0, 8,30.00,40.00,Monday
7,26.314570062272164
8,80.66666666666667
9,0.6666666666666667
10,150.0
11,200.5
12,8.666666666666666
13,0.0
838,23.249634559224884
839,41.9115137533256
902,23.25
903,28.126197814941406
1051,1089.1191224075674
1313,0.0
1078,653471.4734445404
2,1, 7, 1, 0, 8,40.00,50.00,Monday
7,26.366046515363852
8,79.83333333333334
9,0.5833333333333333
10,150.0
11,216.0
12,10.333333333333332
13,0.0
838,23.24967842476366
839,42.42181927586745
902,23.25
903,26.289688110351563
1051,1059.8361762643488
1313,0.0
1078,635901.7057586092
2,1, 7, 1, 0, 8,50.00,60.00,Monday
7,26.41752296845554
8,79.0
9,0.5
10,150.0
11,231.5
12,12.0
13,0.0
838,23.24972177100928
839,42.90628230013004
902,23.25
903,26.79511260986328
1051,1028.463916155615
1313,0.0
1078,617078.349693369
2,1, 7, 1, 0, 9, 0.00,10.00,Monday
7,26.338368731703618
8,78.16666666666667
9,0.6666666666666667
10,173.33333333333334
11,247.0
12,13.666666666666668
13,20.0
838,23.967199390488187
839,42.4055653921072
902,23.25
903,27.58455467224121
1051,512.2512867043265
1313,0.0
1078,307350.7720225959
2,1, 7, 1, 0, 9,10.00,20.00,Monday
7,26.259214494951692
8,77.33333333333334
9,0.8333333333333334
10,196.66666666666666
11,262.5
12,15.333333333333334
13,20.0
838,24.66604998758825
839,42.07580828262942
902,23.25
903,27.375957489013672
1051,527.4991008877773
1313,0.0
1078,316499.4605326665
2,1, 7, 1, 0, 9,20.00,30.00,Monday
7,26.180060258199763
8,76.5
9,1.0
10,220.0
11,278.0
12,17.0
13,20.0
838,25.247362509637746
839,42.091024020962806
902,21.84810256958007
903,27.18980789184569
1051,537.3722263768016
1313,0.0
1078,322423.33582608105
2,1, 7, 1, 0, 9,30.00,40.00,Monday
7,26.10090602144784
8,75.66666666666666
9,1.1666666666666667
10,243.33333333333331
11,284.0
12,17.5
13,20.0
838,25.78981125856668
839,43.18117557180905
902,19.830341339111335
903,25.894529342651378
1051,1497.9643530073363
1313,0.0
1078,898778.6118044015
2,1, 7, 1, 0, 9,40.00,50.00,Monday
7,26.021751784695912
8,74.83333333333334
9,1.3333333333333333
10,266.6666666666667
11,290.0
12,18.0
13,20.0
838,25.86304741847548
839,45.60504899956644
902,19.475383758544922
903,25.860801696777344
1051,1614.3185223211105
1313,0.0
1078,968591.1133926663
2,1, 7, 1, 0, 9,50.00,60.00,Monday
7,25.942597547943986
8,74.0
9,1.5
10,290.0
11,296.0
12,18.5
13,20.0
838,26.257992763059843
839,46.24886101331138
902,17.962854385375977
903,26.408981323242188
1051,1151.1464258046228
1313,0.0
1078,690687.8554827737
2,1, 7, 1, 0,10, 0.00,10.00,Monday
7,26.180643853187277
8,74.0
9,1.5
10,290.0
11,302.0
12,19.0
13,20.0
838,26.092313143132593
839,49.816209776765504
902,19.31268310546875
903,26.08340835571289
1051,2514.666443298409
1313,0.0
1078,1508799.8659790456
2,1, 7, 1, 0,10,10.00,20.00,Monday
7,26.41869015843057
8,74.0
9,1.5
10,290.0
11,308.0
12,19.5
13,20.0
838,25.88790273671724
839,53.67154630300837
902,12.0
903,25.85952377319336
1051,2749.84391415923
1313,0.0
1078,1649906.3484955379
2,1, 7, 1, 0,10,20.00,30.00,Monday
7,26.65673646367386
8,74.0
9,1.5
10,290.0
11,314.0
12,20.0
13,20.0
838,26.277546975927816
839,54.224847036776694
902,15.128623962402344
903,26.283710479736328
1051,2366.44522816565
1313,0.0
1078,1419867.1368993903
2,1, 7, 1, 0,10,30.00,40.00,Monday
7,26.894782768917153
8,74.0
9,1.5
10,290.0
11,323.3333333333333
12,22.666666666666664
13,20.0
838,26.309533503370986
839,55.969400198993554
902,19.946701049804688
903,26.313125610351563
1051,2917.312625231193
1313,0.0
1078,1750387.5751387158
2,1, 7, 1, 0,10,40.00,50.00,Monday
7,27.13282907416044
8,74.0
9,1.5
10,290.0
11,332.66666666666663
12,25.333333333333332
13,20.0
838,25.462967557625912
839,57.771846949242644
902,16.91043090820314
903,25.437845230102557
1051,7324.033982632194
1313,0.0
1078,4394420.389579313
2,1, 7, 1, 0,10,50.00,60.00,Monday
7,27.37087537940373
8,74.0
9,1.5
10,290.0
11,342.0
12,28.0
13,20.0
838,26.31903049113486
839,55.74910132889301
902,14.339971542358398
903,26.64178466796875
1051,1887.060447728788
1313,0.0
1078,1132236.2686372725
2,1, 7, 1, 0,11, 0.00,10.00,Monday
7,27.240553789419465
8,74.0
9,1.6833333333333333
10,265.0
11,351.3333333333333
12,30.666666666666668
13,20.0
838,25.99017861955155
839,56.969220012136546
902,13.401859283447266
903,25.973533630371094
1051,5128.705205120754
1313,0.0
1078,3077223.123072452
2,1, 7, 1, 0,11,10.00,20.00,Monday
7,27.110232199435195
8,74.0
9,1.8666666666666667
10,240.0
11,360.6666666666667
12,33.333333333333336
13,20.0
838,24.978570144698597
839,58.17643959668972
902,16.62822151184082
903,24.82037925720215
1051,10566.14098319687
1313,0.0
1078,6339684.589918123
2,1, 7, 1, 0,11,20.00,30.00,Monday
7,26.979910609450926
8,74.0
9,2.05
10,215.0
11,370.0
12,36.0
13,20.0
838,26.175147796671375
839,54.9367349353697
902,20.121726989746108
903,26.912576675415064
1051,1424.7309086830326
1313,0.0
1078,854838.545209819
2,1, 7, 1, 0,11,30.00,40.00,Monday
7,26.849589019466656
8,74.0
9,2.2333333333333334
10,190.0
11,375.83333333333337
12,37.0
13,20.0
838,24.87108054992518
839,57.26651581515225
902,12.191925048828125
903,24.514480590820313
1051,10586.040424643224
1313,0.0
1078,6351624.254785934
2,1, 7, 1, 0,11,40.00,50.00,Monday
7,26.719267429482386
8,74.0
9,2.416666666666667
10,165.0
11,381.66666666666663
12,38.0
13,20.0
838,25.96322606402352
839,53.226841191028285
902,21.789676666259766
903,27.898906707763675
1051,770.7060679460118
1313,0.0
1078,462423.6407676071
2,1, 7, 1, 0,11,50.00,60.00,Monday
7,26.588945839498116
8,74.0
9,2.6
10,140.0
11,387.5
12,39.0
13,20.0
838,25.693667500459085
839,53.89239950708
902,15.911260604858409
903,25.6879463195801
1051,6266.553289604654
1313,0.0
1078,3759931.97376279
2,1, 7, 1, 0,12, 0.00,10.00,Monday
7,26.573987035597078
8,74.83333333333334
9,2.416666666666667
10,136.66666666666666
11,393.33333333333337
12,40.0
13,16.0
838,25.067538322044086
839,55.79452685112678
902,12.329586029052734
903,25.05097198486328
1051,8386.084481470425
1313,0.0
1078,5031650.688882255
2,1, 7, 1, 0,12,10.00,20.00,Monday
7,26.559028231696033
8,75.66666666666667
9,2.2333333333333334
10,133.33333333333334
11,399.16666666666663
12,41.0
13,16.0
838,25.848380350677807
839,54.18275551804372
902,16.196823120117188
903,25.990455627441406
1051,2858.5489962916295
1313,0.0
1078,1715129.3977749778
2,1, 7, 1, 0,12,20.00,30.00,Monday
7,26.54406942779499
8,76.5
9,2.05
10,130.0
11,405.0
12,42.0
13,16.0
838,25.711956948190345
839,55.27992592050458
902,15.704340934753418
903,25.663558959960938
1051,6133.0884316702995
1313,0.0
1078,3679853.0590021797
2,1, 7, 1, 0,12,30.00,40.00,Monday
7,26.52911062389395
8,77.33333333333333
9,1.8666666666666667
10,126.66666666666667
11,396.16666666666663
12,38.833333333333336
13,16.0
838,26.302849923104933
839,54.44158904900909
902,18.423709869384766
903,26.32844352722168
1051,2676.9389436357023
1313,0.0
1078,1606163.3661814216
2,1, 7, 1, 0,12,40.00,50.00,Monday
7,26.51415181999291
8,78.16666666666667
9,1.6833333333333331
10,123.33333333333333
11,387.33333333333337
12,35.66666666666667
13,16.0
838,26.17275944458258
839,56.52195204229563
902,15.603381156921387
903,26.14409637451172
1051,4238.314307270011
1313,0.0
1078,2542988.5843620067
2,1, 7, 1, 0,12,50.00,60.00,Monday
7,26.499193016091866
8,79.0
9,1.5
10,120.0
11,378.5
12,32.5
13,16.0
838,25.34899544509519
839,58.08762481379655
902,17.290243148803725
903,25.307037353515646
1051,8000.296852740097
1313,0.0
1078,4800178.111644054
2,1, 7, 1, 0,13, 0.00,10.00,Monday
7,26.535533301887554
8,79.00000000000001
9,1.6
10,120.0
11,369.66666666666663
12,29.333333333333332
13,8.0
838,26.04351303896643
839,56.02455848079889
902,19.374048233032227
903,26.19668960571289
1051,2068.385629687707
1313,0.0
1078,1241031.3778126242
2,1, 7, 1, 0,13,10.00,20.00,Monday
7,26.571873587683235
8,79.0
9,1.7
10,120.0
11,360.83333333333337
12,26.166666666666664
13,8.0
838,26.136048859498253
839,56.84681955476327
902,12.0
903,26.125709533691406
1051,3721.3708851512924
1313,0.0
1078,2232822.5310907755
2,1, 7, 1, 0,13,20.00,30.00,Monday
7,26.608213873478917
8,79.0
9,1.8
10,120.0
11,352.0
12,23.0
13,8.0
838,25.411081114925167
839,58.193499079091936
902,20.763925552368157
903,25.388690948486314
1051,6266.758531201835
1313,0.0
1078,3760055.1187211024
2,1, 7, 1, 0,13,30.00,40.00,Monday
7,26.644554159274605
8,79.0
9,1.9
10,120.0
11,349.33333333333337
12,23.5
13,8.0
838,25.64070587077748
839,56.86291394727851
902,18.320880889892585
903,25.656362533569347
1051,2398.5564835063165
1313,0.0
1078,1439133.8901037893
2,1, 7, 1, 0,13,40.00,50.00,Monday
7,26.680894445070287
8,79.0
9,2.0
10,120.0
11,346.66666666666663
12,24.0
13,8.0
838,25.651806801488352
839,57.69881249105758
902,17.789281845092773
903,25.65279197692871
1051,3795.590127884855
1313,0.0
1078,2277354.076730913
2,1, 7, 1, 0,13,50.00,60.00,Monday
7,26.71723473086597
8,79.0
9,2.1
10,120.0
11,344.0
12,24.5
13,8.0
838,26.172729668972334
839,56.42117500858122
902,13.194533348083496
903,26.245756149291992
1051,2006.3991622873527
1313,0.0
1078,1203839.4973724117
2,1, 7, 1, 0,14, 0.00,10.00,Monday
7,26.683226137408997
8,79.00000000000001
9,2.1833333333333336
10,120.0
11,341.33333333333337
12,25.0
13,16.0
838,25.81464539691342
839,58.938243696155205
902,15.622611999511719
903,25.790992736816406
1051,3860.137778963979
1313,0.0
1078,2316082.6673783874
2,1, 7, 1, 0,14,10.00,20.00,Monday
7,26.64921754395202
8,79.0
9,2.2666666666666666
10,120.0
11,338.66666666666663
12,25.5
13,16.0
838,24.946360442343444
839,60.43246499788392
902,18.915088653564446
903,24.84396743774413
1051,8730.423448094545
1313,0.0
1078,5238254.06885673
2,1, 7, 1, 0,14,20.00,30.00,Monday
7,26.61520895049504
8,79.0
9,2.35
10,120.0
11,336.0
12,26.0
13,16.0
838,25.951122293845117
839,57.467398695288765
902,22.2713737487793
903,26.361080169677734
1051,1579.27577339319
1313,0.0
1078,947565.464035914
2,1, 7, 1, 0,14,30.00,40.00,Monday
7,26.581200357038064
8,79.0
9,2.4333333333333336
10,120.0
11,318.0
12,22.833333333333336
13,16.0
838,26.346026800589556
839,56.965344595610816
902,19.816083908081062
903,26.358249664306648
1051,2579.075304409361
1313,0.0
1078,1547445.182645616
2,1, 7, 1, 0,14,40.00,50.00,Monday
7,26.547191763581086
8,79.0
9,2.516666666666667
10,120.0
11,300.0
12,19.666666666666668
13,16.0
838,25.428614698010104
839,58.89232094107079
902,16.404602050781264
903,25.3611469268799
1051,7131.3137915978195
1313,0.0
1078,4278788.274958688
2,1, 7, 1, 0,14,50.00,60.00,Monday
7,26.513183170124112
8,79.0
9,2.6
10,120.0
11,282.0
12,16.5
13,16.0
838,26.143812677168302
839,57.53242329534994
902,19.534294128417983
903,26.296878814697287
1051,1920.3614311541369
1313,0.0
1078,1152216.8586924812
2,1, 7, 1, 0,15, 0.00,10.00,Monday
7,26.2870287188682
8,79.83333333333334
9,2.85
10,125.0
11,264.0
12,13.333333333333332
13,20.0
838,25.559681364790656
839,59.338786766397035
902,19.398353576660156
903,25.520904541015625
1051,5457.568420060157
1313,0.0
1078,3274541.0520360945
2,1, 7, 1, 0,15,10.00,20.00,Monday
7,26.060874267612288
8,80.66666666666667
9,3.1
10,130.0
11,246.0
12,10.166666666666666
13,20.0
838,26.113251396937827
839,58.295711221918495
902,13.24518966674804
903,26.20246696472167
1051,2142.519816824447
1313,0.0
1078,1285511.8900946686
2,1, 7, 1, 0,15,20.00,30.00,Monday
7,25.834719816356376
8,81.5
9,3.3499999999999996
10,135.0
11,228.0
12,7.0
13,20.0
838,25.97275039388542
839,60.20305804894105
902,20.255062103271484
903,25.925670623779297
1051,4210.873763168719
1313,0.0
1078,2526524.2579012313
2,1, 7, 1, 0,15,30.00,40.00,Monday
7,25.60856536510046
8,82.33333333333334
9,3.5999999999999996
10,140.0
11,234.0
12,10.0
13,20.0
838,24.88000061735893
839,61.705281392832475
902,23.04894638061524
903,24.67966842651368
1051,9636.193076615555
1313,0.0
1078,5781715.84596933
2,1, 7, 1, 0,15,40.00,50.00,Monday
7,25.382410913844552
8,83.16666666666666
9,3.8499999999999996
10,145.0
11,240.0
12,13.0
13,20.0
838,26.01976644347777
839,58.339175575869746
902,20.352510452270508
903,27.248092651367188
1051,644.5080087954841
1313,0.0
1078,386704.80527729046
2,1, 7, 1, 0,15,50.00,60.00,Monday
7,25.156256462588637
8,84.0
9,4.1
10,150.0
11,246.0
12,16.0
13,20.0
838,25.885267611982677
839,59.2838115731105
902,12.0
903,25.877845764160156
1051,3892.4673683801675
1313,0.0
1078,2335480.4210281004
2,1, 7, 1, 0,16, 0.00,10.00,Monday
7,25.007803217152933
8,84.83333333333333
9,4.1
10,151.66666666666666
11,252.0
12,19.0
13,20.0
838,26.603362547609443
839,57.705706964761035
902,18.228038787841797
903,26.83816909790039
1051,1366.6299796989933
1313,0.0
1078,819977.9878193958
2,1, 7, 1, 0,16,10.00,20.00,Monday
7,24.859349971717226
8,85.66666666666667
9,4.1
10,153.33333333333334
11,258.0
12,22.000000000000004
13,20.0
838,25.455748037324504
839,60.2423483358702
902,20.831478118896484
903,25.273143768310547
1051,6603.233049672904
1313,0.0
1078,3961939.8298037425
2,1, 7, 1, 0,16,20.00,30.00,Monday
7,24.71089672628152
8,86.5
9,4.1
10,155.0
11,264.0
12,25.0
13,20.0
838,26.3388587653551
839,58.071654184346194
902,23.25
903,26.92414665222168
1051,994.7500646966653
1313,0.0
1078,596850.0388179993
2,1, 7, 1, 0,16,30.00,40.00,Monday
7,24.562443480845815
8,87.33333333333333
9,4.1
10,156.66666666666666
11,240.0
12,20.833333333333336
13,20.0
838,25.501482649379064
839,59.99959919532374
902,16.86979866027832
903,25.235597610473633
1051,6753.476909698225
1313,0.0
1078,4052086.1458189352
2,1, 7, 1, 0,16,40.00,50.00,Monday
7,24.413990235410104
8,88.16666666666667
9,4.1
10,158.33333333333334
11,216.00000000000003
12,16.666666666666668
13,20.0
838,26.213591543989292
839,58.51889224565544
902,21.618431091308594
903,26.531864166259766
1051,1382.3748097374892
1313,0.0
1078,829424.8858424934
2,1, 7, 1, 0,16,50.00,60.00,Monday
7,24.2655369899744
8,89.0
9,4.1
10,160.0
11,192.0
12,12.5
13,20.0
838,25.119582886852243
839,60.69719902097346
902,23.01433563232422
903,24.883445739746094
1051,7338.983209238719
1313,0.0
1078,4403389.925543231
2,1, 7, 1, 0,17, 0.00,10.00,Monday
7,24.202656962278486
8,89.83333333333334
9,3.933333333333333
10,156.66666666666666
11,168.0
12,8.333333333333332
13,20.0
838,25.953149606078462
839,58.40569380584576
902,23.25
903,27.309009552001953
1051,604.0373815729754
1313,0.0
1078,362422.42894378526
2,1, 7, 1, 0,17,10.00,20.00,Monday
7,24.139776934582574
8,90.66666666666667
9,3.7666666666666666
10,153.33333333333334
11,144.0
12,4.166666666666666
13,20.0
838,25.789774082289096
839,59.92457731004731
902,17.923587799072266
903,25.780506134033203
1051,2980.395038170451
1313,0.0
1078,1788237.0229022708
2,1, 7, 1, 0,17,20.00,30.00,Monday
7,24.076896906886656
8,91.5
9,3.5999999999999996
10,150.0
11,120.0
12,0.0
13,20.0
838,25.392935616719434
839,62.394051838619546
902,20.18541717529297
903,25.36754035949707
1051,3701.3066069860465
1313,0.0
1078,2220783.9641916277
2,1, 7, 1, 0,17,30.00,40.00,Monday
7,24.01401687919074
8,92.33333333333334
9,3.433333333333333
10,146.66666666666666
11,113.16666666666666
12,0.0
13,20.0
838,25.473331659606306
839,62.85417600555662
902,23.25
903,25.484601974487305
1051,2391.778726318165
1313,0.0
1078,1435067.235790899
2,1, 7, 1, 0,17,40.00,50.00,Monday
7,23.951136851494827
8,93.16666666666667
9,3.2666666666666666
10,143.33333333333334
11,106.33333333333334
12,0.0
13,20.0
838,26.17873080144483
839,61.14560730485301
902,23.086307525634783
903,26.380752563476584
1051,1118.9476742403617
1313,0.0
1078,671368.6045442165
2,1, 7, 1, 0,17,50.00,60.00,Monday
7,23.888256823798912
8,94.0
9,3.1
10,140.0
11,99.5
12,0.0
13,20.0
838,26.08817176794218
839,62.13606065492881
902,16.342124938964844
903,26.042905807495117
1051,2639.6093161042695
1313,0.0
1078,1583765.5896625617
2,1, 7, 1, 0,18, 0.00,10.00,Monday
7,23.740501577865487
8,94.00000000000001
9,2.9333333333333336
10,141.66666666666666
11,92.66666666666666
12,0.0
13,20.0
838,26.26383582545681
839,61.8025519004846
902,23.25
903,26.27825355529785
1051,1448.3501246841965
1313,0.0
1078,869010.074810518
2,1, 7, 1, 0,18,10.00,20.00,Monday
7,23.592746331932062
8,94.0
9,2.7666666666666666
10,143.33333333333334
11,85.83333333333334
12,0.0
13,20.0
838,26.900229706012595
839,60.40045841365535
902,16.24482345581054
903,27.17746543884276
1051,722.3682874619692
1313,0.0
1078,433420.97247718164
2,1, 7, 1, 0,18,20.00,30.00,Monday
7,23.444991085998637
8,94.0
9,2.6
10,145.0
11,79.0
12,0.0
13,20.0
838,26.32169944055411
839,62.67157052551562
902,23.25
903,26.285499572753906
1051,2438.338761274628
1313,0.0
1078,1463003.2567647765
2,1, 7, 1, 0,18,30.00,40.00,Monday
7,23.297235840065213
8,94.0
9,2.4333333333333336
10,146.66666666666666
11,68.00000000000001
12,0.0
13,20.0
838,25.962894681296987
839,64.05512537866161
902,23.250000000000007
903,25.94487953186036
1051,2624.56452504945
1313,0.0
1078,1574738.7150296692
2,1, 7, 1, 0,18,40.00,50.00,Monday
7,23.149480594131788
8,94.0
9,2.2666666666666666
10,148.33333333333334
11,57.0
12,0.0
13,20.0
838,26.468508030692554
839,62.541716897895405
902,17.492435455322266
903,26.553834915161133
1051,1151.8346078337372
1313,0.0
1078,691100.7647002424
2,1, 7, 1, 0,18,50.00,60.00,Monday
7,23.001725348198363
8,94.0
9,2.1
10,150.0
11,46.0
12,0.0
13,20.0
838,26.225944431126674
839,63.476569102489535
902,23.25
903,26.174190521240234
1051,2597.6041677267062
1313,0.0
1078,1558562.5006360237
2,1, 7, 1, 0,19, 0.00,10.00,Monday
7,22.93885743633978