Program Version,EnergyPlus, Version 24.1.0-9d7789a3ac, YMD=2025.08.14 15:39
1,5,Environment Title[],Latitude[deg],Longitude[deg],Time Zone[],Elevation[m]
2,8,Day of Simulation[],Month[],Day of Month[],DST Indicator[1=yes 0=no],Hour[],StartMinute[],EndMinute[],DayType
3,5,Cumulative Day of Simulation[],Month[],Day of Month[],DST Indicator[1=yes 0=no],DayType  ! When Daily Meters Requested
4,2,Cumulative Days of Simulation[],Month[]  ! When Monthly Meters Requested
5,1,Cumulative Days of Simulation[] ! When Run Period Meters Requested
6,1,Calendar Year of Simulation[] ! When Annual Meters Requested
1078,1,Electricity:HVAC [J] !TimeStep
End of Data Dictionary
1,RUNPERIOD 1,  35.25, 136.93,   9.00,  17.00
2,1, 4, 1, 0, 1, 0.00,10.00,Monday
1078,56628.68760811416
2,1, 4, 1, 0, 1,10.00,20.00,Monday
1078,56628.68760811416
2,1, 4, 1, 0, 1,20.00,30.00,Monday
1078,56628.68760811416
2,1, 4, 1, 0, 1,30.00,40.00,Monday
1078,56628.68760811416
2,1, 4, 1, 0, 1,40.00,50.00,Monday
1078,56628.68760811416
2,1, 4, 1, 0, 1,50.00,60.00,Monday
1078,56628.68760811416
2,1, 4, 1, 0, 2, 0.00,10.00,Monday
1078,56628.68760811416
2,1, 4, 1, 0, 2,10.00,20.00,Monday
1078,56628.68760811416
2,1, 4, 1, 0, 2,20.00,30.00,Monday
1078,56628.68760811416
2,1, 4, 1, 0, 2,30.00,40.00,Monday
1078,56628.68760811416
2,1, 4, 1, 0, 2,40.00,50.00,Monday
1078,56628.68760811416
2,1, 4, 1, 0, 2,50.00,60.00,Monday
1078,56628.68760811416
2,1, 4, 1, 0, 3, 0.00,10.00,Monday
1078,56628.68760811416
2,1, 4, 1, 0, 3,10.00,20.00,Monday
1078,56628.68760811416
2,1, 4, 1, 0, 3,20.00,30.00,Monday
1078,56628.68760811416
2,1, 4, 1, 0, 3,30.00,40.00,Monday
1078,56628.68760811416
2,1, 4, 1, 0, 3,40.00,50.00,Monday
1078,56628.68760811416
2,1, 4, 1, 0, 3,50.00,60.00,Monday
1078,56628.68760811416
2,1, 4, 1, 0, 4, 0.00,10.00,Monday
1078,56628.68760811416
2,1, 4, 1, 0, 4,10.00,20.00,Monday
1078,56628.68760811416
2,1, 4, 1, 0, 4,20.00,30.00,Monday
1078,56628.68760811416
2,1, 4, 1, 0, 4,30.00,40.00,Monday
1078,56628.68760811416
2,1, 4, 1, 0, 4,40.00,50.00,Monday
1078,56628.68760811416
2,1, 4, 1, 0, 4,50.00,60.00,Monday
1078,56628.68760811416
2,1, 4, 1, 0, 5, 0.00,10.00,Monday
1078,56628.68760811416
2,1, 4, 1, 0, 5,10.00,20.00,Monday
1078,56628.68760811416
2,1, 4, 1, 0, 5,20.00,30.00,Monday
1078,56628.68760811416
2,1, 4, 1, 0, 5,30.00,40.00,Monday
1078,56628.68760811416
2,1, 4, 1, 0, 5,40.00,50.00,Monday
1078,56628.68760811416
2,1, 4, 1, 0, 5,50.00,60.00,Monday
1078,56628.68760811416
2,1, 4, 1, 0, 6, 0.00,10.00,Monday
1078,56628.68760811416
2,1, 4, 1, 0, 6,10.00,20.00,Monday
1078,56628.68760811416
2,1, 4, 1, 0, 6,20.00,30.00,Monday
1078,56628.68760811416
2,1, 4, 1, 0, 6,30.00,40.00,Monday
1078,56628.68760811416
2,1, 4, 1, 0, 6,40.00,50.00,Monday
1078,56628.68760811416
2,1, 4, 1, 0, 6,50.00,60.00,Monday
1078,56628.68760811416
2,1, 4, 1, 0, 7, 0.00,10.00,Monday
1078,292954.9453383755
2,1, 4, 1, 0, 7,10.00,20.00,Monday
1078,302648.4017284223
2,1, 4, 1, 0, 7,20.00,30.00,Monday
1078,312217.2372932822
2,1, 4, 1, 0, 7,30.00,40.00,Monday
1078,321622.2939424398
2,1, 4, 1, 0, 7,40.00,50.00,Monday
1078,330811.4768243138
2,1, 4, 1, 0, 7,50.00,60.00,Monday
1078,339733.3254139728
2,1, 4, 1, 0, 8, 0.00,10.00,Monday
1078,336562.4348085808
2,1, 4, 1, 0, 8,10.00,20.00,Monday
1078,333135.7295454893
2,1, 4, 1, 0, 8,20.00,30.00,Monday
1078,329321.7593721398
2,1, 4, 1, 0, 8,30.00,40.00,Monday
1078,325249.32210831816
2,1, 4, 1, 0, 8,40.00,50.00,Monday
1078,320896.40933664155
2,1, 4, 1, 0, 8,50.00,60.00,Monday
1078,316242.86718496477
2,1, 4, 1, 0, 9, 0.00,10.00,Monday
1078,301923.27409601415
2,1, 4, 1, 0, 9,10.00,20.00,Monday
1078,272907.5831030428
2,1, 4, 1, 0, 9,20.00,30.00,Monday
1078,252662.1954710557
2,1, 4, 1, 0, 9,30.00,40.00,Monday
1078,233707.0076846028
2,1, 4, 1, 0, 9,40.00,50.00,Monday
1078,220373.58323983295
2,1, 4, 1, 0, 9,50.00,60.00,Monday
1078,204563.1120422694
2,1, 4, 1, 0,10, 0.00,10.00,Monday
1078,315059.6794711768
2,1, 4, 1, 0,10,10.00,20.00,Monday
1078,320634.0157318378
2,1, 4, 1, 0,10,20.00,30.00,Monday
1078,268214.2752222365
2,1, 4, 1, 0,10,30.00,40.00,Monday
1078,199021.6038189065
2,1, 4, 1, 0,10,40.00,50.00,Monday
1078,177267.88651005772
2,1, 4, 1, 0,10,50.00,60.00,Monday
1078,256699.2656857569
2,1, 4, 1, 0,11, 0.00,10.00,Monday
1078,323445.24901387515
2,1, 4, 1, 0,11,10.00,20.00,Monday
1078,228343.86655316225
2,1, 4, 1, 0,11,20.00,30.00,Monday
1078,205425.63776186918
2,1, 4, 1, 0,11,30.00,40.00,Monday
1078,138067.4963236586
2,1, 4, 1, 0,11,40.00,50.00,Monday
1078,127959.04570077178
2,1, 4, 1, 0,11,50.00,60.00,Monday
1078,133705.34052561878
2,1, 4, 1, 0,12, 0.00,10.00,Monday
1078,116120.61249954649
2,1, 4, 1, 0,12,10.00,20.00,Monday
1078,89843.47190346566
2,1, 4, 1, 0,12,20.00,30.00,Monday
1078,73608.25000813845
2,1, 4, 1, 0,12,30.00,40.00,Monday
1078,56628.68760811416
2,1, 4, 1, 0,12,40.00,50.00,Monday
1078,60574.2754632783
2,1, 4, 1, 0,12,50.00,60.00,Monday
1078,61145.17034664511
2,1, 4, 1, 0,13, 0.00,10.00,Monday
1078,56628.68760811416
2,1, 4, 1, 0,13,10.00,20.00,Monday
1078,56628.68760811416
2,1, 4, 1, 0,13,20.00,30.00,Monday
1078,56628.68760811416
2,1, 4, 1, 0,13,30.00,40.00,Monday
1078,56628.68760811416
2,1, 4, 1, 0,13,40.00,50.00,Monday
1078,56628.68760811416
2,1, 4, 1, 0,13,50.00,60.00,Monday
1078,56628.68760811416
2,1, 4, 1, 0,14, 0.00,10.00,Monday
1078,64691.963812030415
2,1, 4, 1, 0,14,10.00,20.00,Monday
1078,68136.05732078497
2,1, 4, 1, 0,14,20.00,30.00,Monday
1078,76988.00081521591
2,1, 4, 1, 0,14,30.00,40.00,Monday
1078,82883.8158929168
2,1, 4, 1, 0,14,40.00,50.00,Monday
1078,100557.85819892895
2,1, 4, 1, 0,14,50.00,60.00,Monday
1078,107757.46182899641
2,1, 4, 1, 0,15, 0.00,10.00,Monday
1078,137507.93580090912
2,1, 4, 1, 0,15,10.00,20.00,Monday
1078,75918.06006757749
2,1, 4, 1, 0,15,20.00,30.00,Monday
1078,161569.30985506577
2,1, 4, 1, 0,15,30.00,40.00,Monday
1078,109826.15363748053
2,1, 4, 1, 0,15,40.00,50.00,Monday
1078,176088.3088131674
2,1, 4, 1, 0,15,50.00,60.00,Monday
1078,167130.3338392321
2,1, 4, 1, 0,16, 0.00,10.00,Monday
1078,217725.2409186027
2,1, 4, 1, 0,16,10.00,20.00,Monday
1078,104355.96713920495
2,1, 4, 1, 0,16,20.00,30.00,Monday
1078,271406.5144126278
2,1, 4, 1, 0,16,30.00,40.00,Monday
1078,344858.9488954731
2,1, 4, 1, 0,16,40.00,50.00,Monday
1078,401890.7969013925
2,1, 4, 1, 0,16,50.00,60.00,Monday
1078,563709.9947149399
2,1, 4, 1, 0,17, 0.00,10.00,Monday
1078,479985.13590782863
2,1, 4, 1, 0,17,10.00,20.00,Monday
1078,457624.9201091493
2,1, 4, 1, 0,17,20.00,30.00,Monday
1078,426755.839362889
2,1, 4, 1, 0,17,30.00,40.00,Monday
1078,401742.07688057
2,1, 4, 1, 0,17,40.00,50.00,Monday
1078,379787.43829454295
2,1, 4, 1, 0,17,50.00,60.00,Monday
1078,347893.05692608934
2,1, 4, 1, 0,18, 0.00,10.00,Monday
1078,321039.9028781324
2,1, 4, 1, 0,18,10.00,20.00,Monday
1078,300103.3857403379
2,1, 4, 1, 0,18,20.00,30.00,Monday
1078,281272.140320857
2,1, 4, 1, 0,18,30.00,40.00,Monday
1078,269206.61387536733
2,1, 4, 1, 0,18,40.00,50.00,Monday
1078,259534.3728518353
2,1, 4, 1, 0,18,50.00,60.00,Monday
1078,251004.36952091331
2,1, 4, 1, 0,19, 0.00,10.00,Monday
1078,56628.68760811416
2,1, 4, 1, 0,19,10.00,20.00,Monday
1078,56628.68760811416
2,1, 4, 1, 0,19,20.00,30.00,Monday
1078,56628.68760811416
2,1, 4, 1, 0,19,30.00,40.00,Monday
1078,56628.68760811416
2,1, 4, 1, 0,19,40.00,50.00,Monday
1078,56628.68760811416
2,1, 4, 1, 0,19,50.00,60.00,Monday
1078,56628.68760811416
2,1, 4, 1, 0,20, 0.00,10.00,Monday
1078,56628.68760811416
2,1, 4, 1, 0,20,10.00,20.00,Monday
1078,56628.68760811416
2,1, 4, 1, 0,20,20.00,30.00,Monday
1078,56628.68760811416
2,1, 4, 1, 0,20,30.00,40.00,Monday
1078,56628.68760811416
2,1, 4, 1, 0,20,40.00,50.00,Monday
1078,56628.68760811416
2,1, 4, 1, 0,20,50.00,60.00,Monday
1078,56628.68760811416
2,1, 4, 1, 0,21, 0.00,10.00,Monday
1078,56628.68760811416
2,1, 4, 1, 0,21,10.00,20.00,Monday
1078,56628.68760811416
2,1, 4, 1, 0,21,20.00,30.00,Monday
1078,56628.68760811416
2,1, 4, 1, 0,21,30.00,40.00,Monday
1078,56628.68760811416
2,1, 4, 1, 0,21,40.00,50.00,Monday
1078,56628.68760811416
2,1, 4, 1, 0,21,50.00,60.00,Monday
1078,56628.68760811416
2,1, 4, 1, 0,22, 0.00,10.00,Monday
1078,56628.68760811416
2,1, 4, 1, 0,22,10.00,20.00,Monday
1078,56628.68760811416
2,1, 4, 1, 0,22,20.00,30.00,Monday
1078,56628.68760811416
2,1, 4, 1, 0,22,30.00,40.00,Monday
1078,56628.68760811416
2,1, 4, 1, 0,22,40.00,50.00,Monday
1078,56628.68760811416
2,1, 4, 1, 0,22,50.00,60.00,Monday
1078,56628.68760811416
2,1, 4, 1, 0,23, 0.00,10.00,Monday
1078,56628.68760811416
2,1, 4, 1, 0,23,10.00,20.00,Monday
1078,56628.68760811416
2,1, 4, 1, 0,23,20.00,30.00,Monday
1078,56628.68760811416
2,1, 4, 1, 0,23,30.00,40.00,Monday
1078,56628.68760811416
2,1, 4, 1, 0,23,40.00,50.00,Monday
1078,56628.68760811416
2,1, 4, 1, 0,23,50.00,60.00,Monday
1078,56628.68760811416
2,1, 4, 1, 0,24, 0.00,10.00,Monday
1078,56628.68760811416
2,1, 4, 1, 0,24,10.00,20.00,Monday
1078,56628.68760811416
2,1, 4, 1, 0,24,20.00,30.00,Monday
1078,56628.68760811416
2,1, 4, 1, 0,24,30.00,40.00,Monday
1078,56628.68760811416
2,1, 4, 1, 0,24,40.00,50.00,Monday
1078,56628.68760811416
2,1, 4, 1, 0,24,50.00,60.00,Monday
1078,56628.68760811416
2,2, 4, 2, 0, 1, 0.00,10.00,Tuesday
1078,56628.68760811416
2,2, 4, 2, 0, 1,10.00,20.00,Tuesday
1078,56628.68760811416
2,2, 4, 2, 0, 1,20.00,30.00,Tuesday
1078,56628.68760811416
2,2, 4, 2, 0, 1,30.00,40.00,Tuesday
1078,56628.68760811416
2,2, 4, 2, 0, 1,40.00,50.00,Tuesday
1078,56628.68760811416
2,2, 4, 2, 0, 1,50.00,60.00,Tuesday
1078,56628.68760811416
2,2, 4, 2, 0, 2, 0.00,10.00,Tuesday
1078,56628.68760811416
2,2, 4, 2, 0, 2,10.00,20.00,Tuesday
1078,56628.68760811416
2,2, 4, 2, 0, 2,20.00,30.00,Tuesday
1078,56628.68760811416
2,2, 4, 2, 0, 2,30.00,40.00,Tuesday
1078,56628.68760811416
2,2, 4, 2, 0, 2,40.00,50.00,Tuesday
1078,56628.68760811416
2,2, 4, 2, 0, 2,50.00,60.00,Tuesday
1078,56628.68760811416
2,2, 4, 2, 0, 3, 0.00,10.00,Tuesday
1078,56628.68760811416
2,2, 4, 2, 0, 3,10.00,20.00,Tuesday
1078,56628.68760811416
2,2, 4, 2, 0, 3,20.00,30.00,Tuesday
1078,56628.68760811416
2,2, 4, 2, 0, 3,30.00,40.00,Tuesday
1078,56628.68760811416
2,2, 4, 2, 0, 3,40.00,50.00,Tuesday
1078,56628.68760811416
2,2, 4, 2, 0, 3,50.00,60.00,Tuesday
1078,56628.68760811416
2,2, 4, 2, 0, 4, 0.00,10.00,Tuesday
1078,56628.68760811416
2,2, 4, 2, 0, 4,10.00,20.00,Tuesday
1078,56628.68760811416
2,2, 4, 2, 0, 4,20.00,30.00,Tuesday
1078,56628.68760811416
2,2, 4, 2, 0, 4,30.00,40.00,Tuesday
1078,56628.68760811416
2,2, 4, 2, 0, 4,40.00,50.00,Tuesday
1078,56628.68760811416
2,2, 4, 2, 0, 4,50.00,60.00,Tuesday
1078,56628.68760811416
2,2, 4, 2, 0, 5, 0.00,10.00,Tuesday
1078,56628.68760811416
2,2, 4, 2, 0, 5,10.00,20.00,Tuesday
1078,56628.68760811416
2,2, 4, 2, 0, 5,20.00,30.00,Tuesday
1078,56628.68760811416
2,2, 4, 2, 0, 5,30.00,40.00,Tuesday
1078,56628.68760811416
2,2, 4, 2, 0, 5,40.00,50.00,Tuesday
1078,56628.68760811416
2,2, 4, 2, 0, 5,50.00,60.00,Tuesday
1078,56628.68760811416
2,2, 4, 2, 0, 6, 0.00,10.00,Tuesday
1078,56628.68760811416
2,2, 4, 2, 0, 6,10.00,20.00,Tuesday
1078,56628.68760811416
2,2, 4, 2, 0, 6,20.00,30.00,Tuesday
1078,56628.68760811416
2,2, 4, 2, 0, 6,30.00,40.00,Tuesday
1078,56628.68760811416
2,2, 4, 2, 0, 6,40.00,50.00,Tuesday
1078,56628.68760811416
2,2, 4, 2, 0, 6,50.00,60.00,Tuesday
1078,56628.68760811416
2,2, 4, 2, 0, 7, 0.00,10.00,Tuesday
1078,273048.92344758054
2,2, 4, 2, 0, 7,10.00,20.00,Tuesday
1078,269438.5981234918
2,2, 4, 2, 0, 7,20.00,30.00,Tuesday
1078,265603.9280976275
2,2, 4, 2, 0, 7,30.00,40.00,Tuesday
1078,260918.15677393123
2,2, 4, 2, 0, 7,40.00,50.00,Tuesday
1078,254974.2310650156
2,2, 4, 2, 0, 7,50.00,60.00,Tuesday
1078,247264.01689299755
2,2, 4, 2, 0, 8, 0.00,10.00,Tuesday
1078,231465.92103769194
2,2, 4, 2, 0, 8,10.00,20.00,Tuesday
1078,214441.63054860942
2,2, 4, 2, 0, 8,20.00,30.00,Tuesday
1078,196248.0047592325
2,2, 4, 2, 0, 8,30.00,40.00,Tuesday
1078,177213.02146826917
2,2, 4, 2, 0, 8,40.00,50.00,Tuesday
1078,157082.7021590663
2,2, 4, 2, 0, 8,50.00,60.00,Tuesday
1078,138064.67617708223
2,2, 4, 2, 0, 9, 0.00,10.00,Tuesday
1078,132817.87843433383
2,2, 4, 2, 0, 9,10.00,20.00,Tuesday
1078,262592.79061057954
2,2, 4, 2, 0, 9,20.00,30.00,Tuesday
1078,56628.68760811416
2,2, 4, 2, 0, 9,30.00,40.00,Tuesday
1078,135172.56367400815
2,2, 4, 2, 0, 9,40.00,50.00,Tuesday
1078,88702.3937569928
2,2, 4, 2, 0, 9,50.00,60.00,Tuesday
1078,123865.63437132497
2,2, 4, 2, 0,10, 0.00,10.00,Tuesday
1078,268272.82219827676
2,2, 4, 2, 0,10,10.00,20.00,Tuesday
1078,303850.3584417195
2,2, 4, 2, 0,10,20.00,30.00,Tuesday
1078,433361.59941535915
2,2, 4, 2, 0,10,30.00,40.00,Tuesday
1078,451456.49593245203
2,2, 4, 2, 0,10,40.00,50.00,Tuesday
1078,516415.1988481925
2,2, 4, 2, 0,10,50.00,60.00,Tuesday
1078,524823.0914780523
2,2, 4, 2, 0,11, 0.00,10.00,Tuesday
1078,527982.1224788541
2,2, 4, 2, 0,11,10.00,20.00,Tuesday
1078,429591.6068455138
2,2, 4, 2, 0,11,20.00,30.00,Tuesday
1078,436219.01370373403
2,2, 4, 2, 0,11,30.00,40.00,Tuesday
1078,328690.6634108301
2,2, 4, 2, 0,11,40.00,50.00,Tuesday
1078,252250.1121715313
2,2, 4, 2, 0,11,50.00,60.00,Tuesday
1078,176340.01178610034
2,2, 4, 2, 0,12, 0.00,10.00,Tuesday
1078,199267.91483052718
2,2, 4, 2, 0,12,10.00,20.00,Tuesday
1078,161873.4248858067
2,2, 4, 2, 0,12,20.00,30.00,Tuesday
1078,206641.86829698167
2,2, 4, 2, 0,12,30.00,40.00,Tuesday
1078,186949.1310560966
2,2, 4, 2, 0,12,40.00,50.00,Tuesday
1078,198727.5261889291
2,2, 4, 2, 0,12,50.00,60.00,Tuesday
1078,203316.62330199074
2,2, 4, 2, 0,13, 0.00,10.00,Tuesday
1078,155052.4582630916
2,2, 4, 2, 0,13,10.00,20.00,Tuesday
1078,132197.61728846698
2,2, 4, 2, 0,13,20.00,30.00,Tuesday
1078,157564.4157610604
2,2, 4, 2, 0,13,30.00,40.00,Tuesday
1078,145773.61054110865
2,2, 4, 2, 0,13,40.00,50.00,Tuesday
1078,149533.4445873853
2,2, 4, 2, 0,13,50.00,60.00,Tuesday
1078,153686.26193620227
2,2, 4, 2, 0,14, 0.00,10.00,Tuesday
1078,205382.0373850227
2,2, 4, 2, 0,14,10.00,20.00,Tuesday
1078,213831.73513285635
2,2, 4, 2, 0,14,20.00,30.00,Tuesday
1078,249631.8399071404
2,2, 4, 2, 0,14,30.00,40.00,Tuesday
1078,225239.81868752933
2,2, 4, 2, 0,14,40.00,50.00,Tuesday
1078,250496.37956273477
2,2, 4, 2, 0,14,50.00,60.00,Tuesday
1078,249556.20930563487
2,2, 4, 2, 0,15, 0.00,10.00,Tuesday
1078,279151.9210654947
2,2, 4, 2, 0,15,10.00,20.00,Tuesday
1078,321684.61883214215
2,2, 4, 2, 0,15,20.00,30.00,Tuesday
1078,380620.91901524767
2,2, 4, 2, 0,15,30.00,40.00,Tuesday
1078,426419.20416444866
2,2, 4, 2, 0,15,40.00,50.00,Tuesday
1078,437599.97634806845
2,2, 4, 2, 0,15,50.00,60.00,Tuesday
1078,450153.5770391415
2,2, 4, 2, 0,16, 0.00,10.00,Tuesday
1078,378032.2744369231
2,2, 4, 2, 0,16,10.00,20.00,Tuesday
1078,320193.2327537909
2,2, 4, 2, 0,16,20.00,30.00,Tuesday
1078,327737.4278578708
2,2, 4, 2, 0,16,30.00,40.00,Tuesday
1078,349623.43582690187
2,2, 4, 2, 0,16,40.00,50.00,Tuesday
1078,373247.90818251355
2,2, 4, 2, 0,16,50.00,60.00,Tuesday
1078,386978.4328831403
2,2, 4, 2, 0,17, 0.00,10.00,Tuesday
1078,330234.9934930203
2,2, 4, 2, 0,17,10.00,20.00,Tuesday
1078,308098.9894673192
2,2, 4, 2, 0,17,20.00,30.00,Tuesday
1078,300412.0047700206
2,2, 4, 2, 0,17,30.00,40.00,Tuesday
1078,270600.65994636976
2,2, 4, 2, 0,17,40.00,50.00,Tuesday
1078,257429.72201804526
2,2, 4, 2, 0,17,50.00,60.00,Tuesday
1078,227662.79098429906
2,2, 4, 2, 0,18, 0.00,10.00,Tuesday
1078,217030.17009401415
2,2, 4, 2, 0,18,10.00,20.00,Tuesday
1078,107220.05111393979
2,2, 4, 2, 0,18,20.00,30.00,Tuesday
1078,224500.96154353532
2,2, 4, 2, 0,18,30.00,40.00,Tuesday
1078,74512.92703054985
2,2, 4, 2, 0,18,40.00,50.00,Tuesday
1078,215008.77878131022
2,2, 4, 2, 0,18,50.00,60.00,Tuesday
1078,56628.68760811416
2,2, 4, 2, 0,19, 0.00,10.00,Tuesday
1078,75032.60254377712
2,2, 4, 2, 0,19,10.00,20.00,Tuesday
1078,56628.68760811416
2,2, 4, 2, 0,19,20.00,30.00,Tuesday
1078,56628.68760811416
2,2, 4, 2, 0,19,30.00,40.00,Tuesday
1078,56628.68760811416
2,2, 4, 2, 0,19,40.00,50.00,Tuesday
1078,56628.68760811416
2,2, 4, 2, 0,19,50.00,60.00,Tuesday
1078,56628.68760811416
2,2, 4, 2, 0,20, 0.00,10.00,Tuesday
1078,56628.68760811416
2,2, 4, 2, 0,20,10.00,20.00,Tuesday
1078,56628.68760811416
2,2, 4, 2, 0,20,20.00,30.00,Tuesday
1078,56628.68760811416
2,2, 4, 2, 0,20,30.00,40.00,Tuesday
1078,56628.68760811416
2,2, 4, 2, 0,20,40.00,50.00,Tuesday
1078,56628.68760811416
2,2, 4, 2, 0,20,50.00,60.00,Tuesday
1078,56628.68760811416
2,2, 4, 2, 0,21, 0.00,10.00,Tuesday
1078,56628.68760811416
2,2, 4, 2, 0,21,10.00,20.00,Tuesday
1078,56628.68760811416
2,2, 4, 2, 0,21,20.00,30.00,Tuesday
1078,56628.68760811416
2,2, 4, 2, 0,21,30.00,40.00,Tuesday
1078,56628.68760811416
2,2, 4, 2, 0,21,40.00,50.00,Tuesday
1078,56628.68760811416
2,2, 4, 2, 0,21,50.00,60.00,Tuesday
1078,56628.68760811416
2,2, 4, 2, 0,22, 0.00,10.00,Tuesday
1078,56628.68760811416
2,2, 4, 2, 0,22,10.00,20.00,Tuesday
1078,56628.68760811416
2,2, 4, 2, 0,22,20.00,30.00,Tuesday
1078,56628.68760811416
2,2, 4, 2, 0,22,30.00,40.00,Tuesday
1078,56628.68760811416
2,2, 4, 2, 0,22,40.00,50.00,Tuesday
1078,56628.68760811416
2,2, 4, 2, 0,22,50.00,60.00,Tuesday
1078,56628.68760811416
2,2, 4, 2, 0,23, 0.00,10.00,Tuesday
1078,56628.68760811416
2,2, 4, 2, 0,23,10.00,20.00,Tuesday
1078,56628.68760811416
2,2, 4, 2, 0,23,20.00,30.00,Tuesday
1078,56628.68760811416
2,2, 4, 2, 0,23,30.00,40.00,Tuesday
1078,56628.68760811416
2,2, 4, 2, 0,23,40.00,50.00,Tuesday
1078,56628.68760811416
2,2, 4, 2, 0,23,50.00,60.00,Tuesday
1078,56628.68760811416
2,2, 4, 2, 0,24, 0.00,10.00,Tuesday
1078,56628.68760811416
2,2, 4, 2, 0,24,10.00,20.00,Tuesday
1078,56628.68760811416
2,2, 4, 2, 0,24,20.00,30.00,Tuesday
1078,56628.68760811416
2,2, 4, 2, 0,24,30.00,40.00,Tuesday
1078,56628.68760811416
2,2, 4, 2, 0,24,40.00,50.00,Tuesday
1078,56628.68760811416
2,2, 4, 2, 0,24,50.00,60.00,Tuesday
1078,56628.68760811416
2,3, 4, 3, 0, 1, 0.00,10.00,Wednesday
1078,56628.68760811416
2,3, 4, 3, 0, 1,10.00,20.00,Wednesday
1078,56628.68760811416
2,3, 4, 3, 0, 1,20.00,30.00,Wednesday
1078,56628.68760811416
2,3, 4, 3, 0, 1,30.00,40.00,Wednesday
1078,56628.68760811416
2,3, 4, 3, 0, 1,40.00,50.00,Wednesday
1078,56628.68760811416
2,3, 4, 3, 0, 1,50.00,60.00,Wednesday
1078,56628.68760811416
2,3, 4, 3, 0, 2, 0.00,10.00,Wednesday
1078,56628.68760811416
2,3, 4, 3, 0, 2,10.00,20.00,Wednesday
1078,56628.68760811416
2,3, 4, 3, 0, 2,20.00,30.00,Wednesday
1078,56628.68760811416
2,3, 4, 3, 0, 2,30.00,40.00,Wednesday
1078,56628.68760811416
2,3, 4, 3, 0, 2,40.00,50.00,Wednesday
1078,56628.68760811416
2,3, 4, 3, 0, 2,50.00,60.00,Wednesday
1078,56628.68760811416
2,3, 4, 3, 0, 3, 0.00,10.00,Wednesday
1078,56628.68760811416
2,3, 4, 3, 0, 3,10.00,20.00,Wednesday
1078,56628.68760811416
2,3, 4, 3, 0, 3,20.00,30.00,Wednesday
1078,56628.68760811416
2,3, 4, 3, 0, 3,30.00,40.00,Wednesday
1078,56628.68760811416
2,3, 4, 3, 0, 3,40.00,50.00,Wednesday
1078,56628.68760811416
2,3, 4, 3, 0, 3,50.00,60.00,Wednesday
1078,56628.68760811416
2,3, 4, 3, 0, 4, 0.00,10.00,Wednesday
1078,56628.68760811416
2,3, 4, 3, 0, 4,10.00,20.00,Wednesday
1078,56628.68760811416
2,3, 4, 3, 0, 4,20.00,30.00,Wednesday
1078,56628.68760811416
2,3, 4, 3, 0, 4,30.00,40.00,Wednesday
1078,56628.68760811416
2,3, 4, 3, 0, 4,40.00,50.00,Wednesday
1078,56628.68760811416
2,3, 4, 3, 0, 4,50.00,60.00,Wednesday
1078,56628.68760811416
2,3, 4, 3, 0, 5, 0.00,10.00,Wednesday
1078,56628.68760811416
2,3, 4, 3, 0, 5,10.00,20.00,Wednesday
1078,56628.68760811416
2,3, 4, 3, 0, 5,20.00,30.00,Wednesday
1078,56628.68760811416
2,3, 4, 3, 0, 5,30.00,40.00,Wednesday
1078,56628.68760811416
2,3, 4, 3, 0, 5,40.00,50.00,Wednesday
1078,56628.68760811416
2,3, 4, 3, 0, 5,50.00,60.00,Wednesday
1078,56628.68760811416
2,3, 4, 3, 0, 6, 0.00,10.00,Wednesday
1078,56628.68760811416
2,3, 4, 3, 0, 6,10.00,20.00,Wednesday
1078,56628.68760811416
2,3, 4, 3, 0, 6,20.00,30.00,Wednesday
1078,56628.68760811416
2,3, 4, 3, 0, 6,30.00,40.00,Wednesday
1078,56628.68760811416
2,3, 4, 3, 0, 6,40.00,50.00,Wednesday
1078,56628.68760811416
2,3, 4, 3, 0, 6,50.00,60.00,Wednesday
1078,84065.63190956276
2,3, 4, 3, 0, 7, 0.00,10.00,Wednesday
1078,476152.7320321105
2,3, 4, 3, 0, 7,10.00,20.00,Wednesday
1078,455402.4514891839
2,3, 4, 3, 0, 7,20.00,30.00,Wednesday
1078,444682.73859082826
2,3, 4, 3, 0, 7,30.00,40.00,Wednesday
1078,433969.6707351022
2,3, 4, 3, 0, 7,40.00,50.00,Wednesday
1078,420775.94335349393
2,3, 4, 3, 0, 7,50.00,60.00,Wednesday
1078,406166.2839416579
2,3, 4, 3, 0, 8, 0.00,10.00,Wednesday
1078,388627.79222882655
2,3, 4, 3, 0, 8,10.00,20.00,Wednesday
1078,369626.933329933
2,3, 4, 3, 0, 8,20.00,30.00,Wednesday
1078,349377.5526653304
2,3, 4, 3, 0, 8,30.00,40.00,Wednesday
1078,328046.880704628
2,3, 4, 3, 0, 8,40.00,50.00,Wednesday
1078,304554.46215965645
2,3, 4, 3, 0, 8,50.00,60.00,Wednesday
1078,280407.3483219375
2,3, 4, 3, 0, 9, 0.00,10.00,Wednesday
1078,233542.67816193058
2,3, 4, 3, 0, 9,10.00,20.00,Wednesday
1078,56628.68760811416
2,3, 4, 3, 0, 9,20.00,30.00,Wednesday
1078,56628.68760811417
2,3, 4, 3, 0, 9,30.00,40.00,Wednesday
1078,89749.1787566983
2,3, 4, 3, 0, 9,40.00,50.00,Wednesday
1078,69983.13014173004
2,3, 4, 3, 0, 9,50.00,60.00,Wednesday
1078,56628.68760811416
2,3, 4, 3, 0,10, 0.00,10.00,Wednesday
1078,58970.3373122956
2,3, 4, 3, 0,10,10.00,20.00,Wednesday
1078,86790.51318916935
2,3, 4, 3, 0,10,20.00,30.00,Wednesday
1078,206849.63433533267
2,3, 4, 3, 0,10,30.00,40.00,Wednesday
1078,228171.67798738656
2,3, 4, 3, 0,10,40.00,50.00,Wednesday
1078,273926.07570689794
2,3, 4, 3, 0,10,50.00,60.00,Wednesday
1078,316152.6744074013
2,3, 4, 3, 0,11, 0.00,10.00,Wednesday
1078,365442.86686781107
2,3, 4, 3, 0,11,10.00,20.00,Wednesday
1078,398845.9485050617
2,3, 4, 3, 0,11,20.00,30.00,Wednesday
1078,489391.972904293
2,3, 4, 3, 0,11,30.00,40.00,Wednesday
1078,453458.1153386056
2,3, 4, 3, 0,11,40.00,50.00,Wednesday
1078,553170.8314327181
2,3, 4, 3, 0,11,50.00,60.00,Wednesday
1078,413952.905011238
2,3, 4, 3, 0,12, 0.00,10.00,Wednesday
1078,523881.8979115689
2,3, 4, 3, 0,12,10.00,20.00,Wednesday
1078,314684.20395759004
2,3, 4, 3, 0,12,20.00,30.00,Wednesday
1078,536924.0860734552
2,3, 4, 3, 0,12,30.00,40.00,Wednesday
1078,208547.4827811446
2,3, 4, 3, 0,12,40.00,50.00,Wednesday
1078,696312.8924791908
2,3, 4, 3, 0,12,50.00,60.00,Wednesday
1078,321299.55014709965
2,3, 4, 3, 0,13, 0.00,10.00,Wednesday
1078,526702.5324475677
2,3, 4, 3, 0,13,10.00,20.00,Wednesday
1078,225927.21190977603
2,3, 4, 3, 0,13,20.00,30.00,Wednesday
1078,1424695.9973107807
2,3, 4, 3, 0,13,30.00,40.00,Wednesday
1078,421626.2112133953
2,3, 4, 3, 0,13,40.00,50.00,Wednesday
1078,2347508.6573062125
2,3, 4, 3, 0,13,50.00,60.00,Wednesday
1078,323547.9802549112
2,3, 4, 3, 0,14, 0.00,10.00,Wednesday
1078,2378801.275201837
2,3, 4, 3, 0,14,10.00,20.00,Wednesday
1078,334195.5207211594
2,3, 4, 3, 0,14,20.00,30.00,Wednesday
1078,2963648.7988147233
2,3, 4, 3, 0,14,30.00,40.00,Wednesday
1078,341380.9740733099
2,3, 4, 3, 0,14,40.00,50.00,Wednesday
1078,2885053.6813111305
2,3, 4, 3, 0,14,50.00,60.00,Wednesday
1078,344425.5003644991
2,3, 4, 3, 0,15, 0.00,10.00,Wednesday
1078,2825499.0018836185
2,3, 4, 3, 0,15,10.00,20.00,Wednesday
1078,350565.5087089679
2,3, 4, 3, 0,15,20.00,30.00,Wednesday
1078,2822412.412139242
2,3, 4, 3, 0,15,30.00,40.00,Wednesday
1078,354870.8335947429
2,3, 4, 3, 0,15,40.00,50.00,Wednesday
1078,2763790.5171216703
2,3, 4, 3, 0,15,50.00,60.00,Wednesday
1078,357606.72264073696
2,3, 4, 3, 0,16, 0.00,10.00,Wednesday
1078,2728646.173407433
2,3, 4, 3, 0,16,10.00,20.00,Wednesday
1078,354347.97915256536
2,3, 4, 3, 0,16,20.00,30.00,Wednesday
1078,2661451.027343327
2,3, 4, 3, 0,16,30.00,40.00,Wednesday
1078,349315.63968969823
2,3, 4, 3, 0,16,40.00,50.00,Wednesday
1078,2532187.886253104
2,3, 4, 3, 0,16,50.00,60.00,Wednesday
1078,342093.7110305141
2,3, 4, 3, 0,17, 0.00,10.00,Wednesday
1078,2234129.3131407825
2,3, 4, 3, 0,17,10.00,20.00,Wednesday
1078,339158.9345080711
2,3, 4, 3, 0,17,20.00,30.00,Wednesday
1078,2061063.3096587604
2,3, 4, 3, 0,17,30.00,40.00,Wednesday
1078,337640.6889063973
2,3, 4, 3, 0,17,40.00,50.00,Wednesday
1078,2126602.190160607
2,3, 4, 3, 0,17,50.00,60.00,Wednesday
1078,334358.78627199243
2,3, 4, 3, 0,18, 0.00,10.00,Wednesday
1078,1957780.510127178
2,3, 4, 3, 0,18,10.00,20.00,Wednesday
1078,326597.8678675276
2,3, 4, 3, 0,18,20.00,30.00,Wednesday
1078,908161.6101839435
2,3, 4, 3, 0,18,30.00,40.00,Wednesday
1078,128423.6943873351
2,3, 4, 3, 0,18,40.00,50.00,Wednesday
1078,693150.5373037328
2,3, 4, 3, 0,18,50.00,60.00,Wednesday
1078,196661.86691759608
2,3, 4, 3, 0,19, 0.00,10.00,Wednesday
1078,214096.16066762162
2,3, 4, 3, 0,19,10.00,20.00,Wednesday
1078,81509.24346543779
2,3, 4, 3, 0,19,20.00,30.00,Wednesday
1078,104353.01133977149
2,3, 4, 3, 0,19,30.00,40.00,Wednesday
1078,65875.3344301748
2,3, 4, 3, 0,19,40.00,50.00,Wednesday
1078,78976.40037979266
2,3, 4, 3, 0,19,50.00,60.00,Wednesday
1078,56628.68760811416
2,3, 4, 3, 0,20, 0.00,10.00,Wednesday
1078,56628.68760811416
2,3, 4, 3, 0,20,10.00,20.00,Wednesday
1078,56628.68760811416
2,3, 4, 3, 0,20,20.00,30.00,Wednesday
1078,56628.68760811416
2,3, 4, 3, 0,20,30.00,40.00,Wednesday
1078,56628.68760811416
2,3, 4, 3, 0,20,40.00,50.00,Wednesday
1078,56628.68760811416
2,3, 4, 3, 0,20,50.00,60.00,Wednesday
1078,56628.68760811416
2,3, 4, 3, 0,21, 0.00,10.00,Wednesday
1078,56628.68760811416
2,3, 4, 3, 0,21,10.00,20.00,Wednesday
1078,56628.68760811416
2,3, 4, 3, 0,21,20.00,30.00,Wednesday
1078,56628.68760811416
2,3, 4, 3, 0,21,30.00,40.00,Wednesday
1078,56628.68760811416
2,3, 4, 3, 0,21,40.00,50.00,Wednesday
1078,56628.68760811416
2,3, 4, 3, 0,21,50.00,60.00,Wednesday
1078,56628.68760811416
2,3, 4, 3, 0,22, 0.00,10.00,Wednesday
1078,56628.68760811416
2,3, 4, 3, 0,22,10.00,20.00,Wednesday
1078,56628.68760811416
2,3, 4, 3, 0,22,20.00,30.00,Wednesday
1078,56628.68760811416
2,3, 4, 3, 0,22,30.00,40.00,Wednesday
1078,56628.68760811416
2,3, 4, 3, 0,22,40.00,50.00,Wednesday
1078,56628.68760811416
2,3, 4, 3, 0,22,50.00,60.00,Wednesday
1078,56628.68760811416
2,3, 4, 3, 0,23, 0.00,10.00,Wednesday
1078,56628.68760811416
2,3, 4, 3, 0,23,10.00,20.00,Wednesday
1078,56628.68760811416
2,3, 4, 3, 0,23,20.00,30.00,Wednesday
1078,56628.68760811416
2,3, 4, 3, 0,23,30.00,40.00,Wednesday
1078,56628.68760811416
2,3, 4, 3, 0,23,40.00,50.00,Wednesday
1078,56628.68760811416
2,3, 4, 3, 0,23,50.00,60.00,Wednesday
1078,56628.68760811416
2,3, 4, 3, 0,24, 0.00,10.00,Wednesday
1078,56628.68760811416
2,3, 4, 3, 0,24,10.00,20.00,Wednesday
1078,56628.68760811416
2,3, 4, 3, 0,24,20.00,30.00,Wednesday
1078,56628.68760811416
2,3, 4, 3, 0,24,30.00,40.00,Wednesday
1078,56628.68760811416
2,3, 4, 3, 0,24,40.00,50.00,Wednesday
1078,56628.68760811416
2,3, 4, 3, 0,24,50.00,60.00,Wednesday
1078,56628.68760811416
2,4, 4, 4, 0, 1, 0.00,10.00,Thursday
1078,56628.68760811416
2,4, 4, 4, 0, 1,10.00,20.00,Thursday
1078,56628.68760811416
2,4, 4, 4, 0, 1,20.00,30.00,Thursday
1078,56628.68760811416
2,4, 4, 4, 0, 1,30.00,40.00,Thursday
1078,56628.68760811416
2,4, 4, 4, 0, 1,40.00,50.00,Thursday
1078,56628.68760811416
2,4, 4, 4, 0, 1,50.00,60.00,Thursday
1078,56628.68760811416
2,4, 4, 4, 0, 2, 0.00,10.00,Thursday
1078,56628.68760811416
2,4, 4, 4, 0, 2,10.00,20.00,Thursday
1078,56628.68760811416
2,4, 4, 4, 0, 2,20.00,30.00,Thursday
1078,56628.68760811416
2,4, 4, 4, 0, 2,30.00,40.00,Thursday
1078,56628.68760811416
2,4, 4, 4, 0, 2,40.00,50.00,Thursday
1078,56628.68760811416
2,4, 4, 4, 0, 2,50.00,60.00,Thursday
1078,56628.68760811416
2,4, 4, 4, 0, 3, 0.00,10.00,Thursday
1078,56628.68760811416
2,4, 4, 4, 0, 3,10.00,20.00,Thursday
1078,56628.68760811416
2,4, 4, 4, 0, 3,20.00,30.00,Thursday
1078,56628.68760811416
2,4, 4, 4, 0, 3,30.00,40.00,Thursday
1078,56628.68760811416
2,4, 4, 4, 0, 3,40.00,50.00,Thursday
1078,56628.68760811416
2,4, 4, 4, 0, 3,50.00,60.00,Thursday
1078,56628.68760811416
2,4, 4, 4, 0, 4, 0.00,10.00,Thursday
1078,56628.68760811416
2,4, 4, 4, 0, 4,10.00,20.00,Thursday
1078,56628.68760811416
2,4, 4, 4, 0, 4,20.00,30.00,Thursday
1078,56628.68760811416
2,4, 4, 4, 0, 4,30.00,40.00,Thursday
1078,56628.68760811416
2,4, 4, 4, 0, 4,40.00,50.00,Thursday
1078,56628.68760811416
2,4, 4, 4, 0, 4,50.00,60.00,Thursday
1078,56628.68760811416
2,4, 4, 4, 0, 5, 0.00,10.00,Thursday
1078,56628.68760811416
2,4, 4, 4, 0, 5,10.00,20.00,Thursday
1078,56628.68760811416
2,4, 4, 4, 0, 5,20.00,30.00,Thursday
1078,56628.68760811416
2,4, 4, 4, 0, 5,30.00,40.00,Thursday
1078,56628.68760811416
2,4, 4, 4, 0, 5,40.00,50.00,Thursday
1078,56628.68760811416
2,4, 4, 4, 0, 5,50.00,60.00,Thursday
1078,56628.68760811416
2,4, 4, 4, 0, 6, 0.00,10.00,Thursday
1078,56628.68760811416
2,4, 4, 4, 0, 6,10.00,20.00,Thursday
1078,56628.68760811416
2,4, 4, 4, 0, 6,20.00,30.00,Thursday
1078,56628.68760811416
2,4, 4, 4, 0, 6,30.00,40.00,Thursday
1078,56628.68760811416
2,4, 4, 4, 0, 6,40.00,50.00,Thursday
1078,56628.68760811416
2,4, 4, 4, 0, 6,50.00,60.00,Thursday
1078,56628.68760811416
2,4, 4, 4, 0, 7, 0.00,10.00,Thursday
1078,158205.22946299496
2,4, 4, 4, 0, 7,10.00,20.00,Thursday
1078,155468.60892668559
2,4, 4, 4, 0, 7,20.00,30.00,Thursday
1078,152403.8126528019
2,4, 4, 4, 0, 7,30.00,40.00,Thursday
1078,148999.79769178835
2,4, 4, 4, 0, 7,40.00,50.00,Thursday
1078,145167.16773938434
2,4, 4, 4, 0, 7,50.00,60.00,Thursday
1078,140839.54324315762
2,4, 4, 4, 0, 8, 0.00,10.00,Thursday
1078,129821.67934526224
2,4, 4, 4, 0, 8,10.00,20.00,Thursday
1078,117956.22691400873
2,4, 4, 4, 0, 8,20.00,30.00,Thursday
1078,105534.0303646189
2,4, 4, 4, 0, 8,30.00,40.00,Thursday
1078,92537.81169475627
2,4, 4, 4, 0, 8,40.00,50.00,Thursday
1078,78615.24400489585
2,4, 4, 4, 0, 8,50.00,60.00,Thursday
1078,56628.68760811416
2,4, 4, 4, 0, 9, 0.00,10.00,Thursday
1078,56628.68760811416
2,4, 4, 4, 0, 9,10.00,20.00,Thursday
1078,56628.68760811416
2,4, 4, 4, 0, 9,20.00,30.00,Thursday
1078,56628.68760811417
2,4, 4, 4, 0, 9,30.00,40.00,Thursday
1078,56628.68760811417
2,4, 4, 4, 0, 9,40.00,50.00,Thursday
1078,56628.68760811416
2,4, 4, 4, 0, 9,50.00,60.00,Thursday
1078,56628.68760811416
2,4, 4, 4, 0,10, 0.00,10.00,Thursday
1078,56628.68760811417
2,4, 4, 4, 0,10,10.00,20.00,Thursday
1078,56628.68760811417
2,4, 4, 4, 0,10,20.00,30.00,Thursday
1078,56628.68760811416
2,4, 4, 4, 0,10,30.00,40.00,Thursday
1078,57875.0875663608
2,4, 4, 4, 0,10,40.00,50.00,Thursday
1078,72944.3636773595