Program Version,EnergyPlus, Version 24.1.0-9d7789a3ac, YMD=2025.08.14 13:26
1,5,Environment Title[],Latitude[deg],Longitude[deg],Time Zone[],Elevation[m]
2,8,Day of Simulation[],Month[],Day of Month[],DST Indicator[1=yes 0=no],Hour[],StartMinute[],EndMinute[],DayType
3,5,Cumulative Day of Simulation[],Month[],Day of Month[],DST Indicator[1=yes 0=no],DayType  ! When Daily Report Variables Requested
4,2,Cumulative Days of Simulation[],Month[]  ! When Monthly Report Variables Requested
5,1,Cumulative Days of Simulation[] ! When Run Period Report Variables Requested
6,1,Calendar Year of Simulation[] ! When Annual Report Variables Requested
7,1,Environment,Site Outdoor Air Drybulb Temperature [C] !TimeStep
8,1,Environment,Site Outdoor Air Relative Humidity [%] !TimeStep
9,1,Environment,Site Wind Speed [m/s] !TimeStep
10,1,Environment,Site Wind Direction [deg] !TimeStep
11,1,Environment,Site Diffuse Solar Radiation Rate per Area [W/m2] !TimeStep
12,1,Environment,Site Direct Solar Radiation Rate per Area [W/m2] !TimeStep
13,1,SPACE5-1,Zone People Occupant Count [] !TimeStep
838,1,SPACE5-1,Zone Air Temperature [C] !TimeStep
839,1,SPACE5-1,Zone Air Relative Humidity [%] !TimeStep
902,1,SPACE5-1,Zone Thermostat Heating Setpoint Temperature [C] !TimeStep
903,1,SPACE5-1,Zone Thermostat Cooling Setpoint Temperature [C] !TimeStep
1051,1,Whole Building,Facility Total HVAC Electricity Demand Rate [W] !TimeStep
1313,1,Site,Environmental Impact Total CO2 Emissions Carbon Equivalent Mass [kg] !TimeStep
1078,1,Electricity:HVAC [J] !TimeStep
End of Data Dictionary
1,RUNPERIOD 1,  35.25, 136.93,   9.00,  17.00
2,1, 7, 1, 0, 1, 0.00,10.00,Monday
7,23.003015115434014
8,88.0
9,2.3333333333333335
10,195.0
11,0.0
12,0.0
13,0.0
838,21.318498147666148
839,54.29132150404219
902,12.8
903,40.0
1051,469.040821065552
1313,0.0
1078,281424.4926393312
2,1, 7, 1, 0, 1,10.00,20.00,Monday
7,23.138543061516145
8,87.0
9,2.066666666666667
10,210.0
11,0.0
12,0.0
13,0.0
838,21.84729813188866
839,52.29825825734094
902,23.25
903,27.605224609375004
1051,7790.727350930154
1313,0.0
1078,4674436.410558094
2,1, 7, 1, 0, 1,20.00,30.00,Monday
7,23.274071007598273
8,86.0
9,1.8
10,225.0
11,0.0
12,0.0
13,0.0
838,22.339491478545696
839,50.476178031799165
902,23.249999999999993
903,25.563674926757802
1051,5601.753820347951
1313,0.0
1078,3361052.292208771
2,1, 7, 1, 0, 1,30.00,40.00,Monday
7,23.4095989536804
8,85.0
9,1.5333333333333334
10,240.0
11,0.0
12,0.0
13,0.0
838,22.703576453158902
839,49.07518815819313
902,23.250000000000007
903,25.74593353271485
1051,5046.820235032383
1313,0.0
1078,3028092.1410194286
2,1, 7, 1, 0, 1,40.00,50.00,Monday
7,23.545126899762533
8,84.0
9,1.2666666666666666
10,255.0
11,0.0
12,0.0
13,0.0
838,22.976932686477173
839,47.88620568065701
902,23.25
903,25.931846618652344
1051,4993.154910191773
1313,0.0
1078,2995892.9461150635
2,1, 7, 1, 0, 1,50.00,60.00,Monday
7,23.68065484584466
8,83.0
9,1.0
10,270.0
11,0.0
12,0.0
13,0.0
838,23.16596181639313
839,46.92166416785364
902,23.25
903,26.003509521484375
1051,4643.6425684025935
1313,0.0
1078,2786185.5410415563
2,1, 7, 1, 0, 2, 0.00,10.00,Monday
7,23.77607321780959
8,83.5
9,1.0
10,295.0
11,0.0
12,0.0
13,0.0
838,23.24804555586253
839,46.26501313577543
902,23.25
903,26.146921157836914
1051,4274.4866940298625
1313,0.0
1078,2564692.0164179173
2,1, 7, 1, 0, 2,10.00,20.00,Monday
7,23.87149158977452
8,84.0
9,1.0
10,320.0
11,0.0
12,0.0
13,0.0
838,23.250410512236314
839,45.84160896366385
902,23.25
903,26.44890022277832
1051,3961.4493418379425
1313,0.0
1078,2376869.6051027654
2,1, 7, 1, 0, 2,20.00,30.00,Monday
7,23.966909961739454
8,84.5
9,1.0
10,345.0
11,0.0
12,0.0
13,0.0
838,23.25046703142073
839,45.433844921069614
902,23.25
903,26.659807205200195
1051,3825.5660877106984
1313,0.0
1078,2295339.652626419
2,1, 7, 1, 0, 2,30.00,40.00,Monday
7,24.06232833370438
8,85.0
9,1.0
10,10.0
11,0.0
12,0.0
13,0.0
838,23.250432207189803
839,45.03351421407383
902,23.25
903,26.777891159057617
1051,3655.541704796305
1313,0.0
1078,2193325.022877783
2,1, 7, 1, 0, 2,40.00,50.00,Monday
7,24.157746705669314
8,85.5
9,1.0
10,35.0
11,0.0
12,0.0
13,0.0
838,23.250410305759363
839,44.63845954305512
902,23.25
903,26.447519302368164
1051,3534.5872563610033
1313,0.0
1078,2120752.353816602
2,1, 7, 1, 0, 2,50.00,60.00,Monday
7,24.253165077634243
8,86.0
9,1.0
10,60.0
11,0.0
12,0.0
13,0.0
838,23.25039324302863
839,44.24768148994754
902,23.25
903,26.58612823486328
1051,3435.4136057091923
1313,0.0
1078,2061248.1634255154
2,1, 7, 1, 0, 3, 0.00,10.00,Monday
7,24.32204757718432
8,86.33333333333334
9,1.0
10,73.33333333333333
11,0.0
12,0.0
13,0.0
838,23.25037975818876
839,43.86070593787962
902,23.25
903,26.700820922851563
1051,3357.380252521182
1313,0.0
1078,2014428.151512709
2,1, 7, 1, 0, 3,10.00,20.00,Monday
7,24.3909300767344
8,86.66666666666667
9,1.0
10,86.66666666666666
11,0.0
12,0.0
13,0.0
838,23.250368133602677
839,43.47741088230476
902,23.25
903,26.89742660522461
1051,3290.6362993396774
1313,0.0
1078,1974381.7796038066
2,1, 7, 1, 0, 3,20.00,30.00,Monday
7,24.459812576284477
8,87.0
9,1.0
10,100.0
11,0.0
12,0.0
13,0.0
838,23.250358109223864
839,43.09778976311983
902,23.25
903,26.96760368347168
1051,3233.600732624382
1313,0.0
1078,1940160.4395746293
2,1, 7, 1, 0, 3,30.00,40.00,Monday
7,24.528695075834555
8,87.33333333333334
9,1.0
10,113.33333333333333
11,0.0
12,0.0
13,0.0
838,23.2503493368096
839,42.721834743662825
902,23.25
903,27.038877487182617
1051,3184.157202501742
1313,0.0
1078,1910494.3215010453
2,1, 7, 1, 0, 3,40.00,50.00,Monday
7,24.597577575384634
8,87.66666666666667
9,1.0
10,126.66666666666667
11,0.0
12,0.0
13,0.0
838,23.250341534716213
839,42.34952408280779
902,23.25
903,27.10552978515625
1051,3140.6304674528474
1313,0.0
1078,1884378.2804717084
2,1, 7, 1, 0, 3,50.00,60.00,Monday
7,24.66646007493471
8,88.0
9,1.0
10,140.0
11,0.0
12,0.0
13,0.0
838,23.2503344856663
839,41.98082631177845
902,23.25
903,27.1682186126709
1051,3101.7271735413087
1313,0.0
1078,1861036.3041247854
2,1, 7, 1, 0, 4, 0.00,10.00,Monday
7,24.586609240534855
8,88.33333333333334
9,0.9166666666666667
10,140.0
11,0.0
12,0.0
13,0.0
838,23.25032833585514
839,41.61550226623923
902,23.25
903,27.22704315185547
1051,3081.2004476097422
1313,0.0
1078,1848720.2685658452
2,1, 7, 1, 0, 4,10.00,20.00,Monday
7,24.506758406135
8,88.66666666666667
9,0.8333333333333334
10,140.0
11,0.0
12,0.0
13,0.0
838,23.250322668726668
839,41.25341688987841
902,23.25
903,27.379480361938477
1051,3066.3531510624903
1313,0.0
1078,1839811.8906374942
2,1, 7, 1, 0, 4,20.00,30.00,Monday
7,24.426907571735143
8,89.0
9,0.75
10,140.0
11,0.0
12,0.0
13,0.0
838,23.250317389903895
839,40.89452964227653
902,23.25
903,27.39965057373047
1051,3055.0604743675813
1313,0.0
1078,1833036.2846205488
2,1, 7, 1, 0, 4,30.00,40.00,Monday
7,24.347056737335286
8,89.33333333333334
9,0.6666666666666667
10,140.0
11,0.0
12,0.0
13,0.0
838,23.25031243508101
839,40.5388407881815
902,23.25
903,27.430036544799805
1051,3046.656580315202
1313,0.0
1078,1827993.9481891212
2,1, 7, 1, 0, 4,40.00,50.00,Monday
7,24.26720590293543
8,89.66666666666666
9,0.5833333333333333
10,140.0
11,0.0
12,0.0
13,0.0
838,23.250307753475898
839,40.18636263385495
902,23.25
903,27.457157135009766
1051,3040.732033795036
1313,0.0
1078,1824439.2202770216
2,1, 7, 1, 0, 4,50.00,60.00,Monday
7,24.18735506853557
8,90.0
9,0.5
10,140.0
11,0.0
12,0.0
13,0.0
838,23.250303302607474
839,39.83710034904951
902,23.25
903,27.482656478881836
1051,3036.9662890363616
1313,0.0
1078,1822179.773421817
2,1, 7, 1, 0, 5, 0.00,10.00,Monday
7,24.131349021262466
8,90.0
9,0.5833333333333334
10,125.0
11,0.0
12,0.0
13,0.0
838,23.250299146833882
839,39.49099767287822
902,23.25
903,27.506547927856445
1051,3032.4071161331685
1313,0.0
1078,1819444.2696799012
2,1, 7, 1, 0, 5,10.00,20.00,Monday
7,24.075342973989358
8,90.0
9,0.6666666666666667
10,110.0
11,0.0
12,0.0
13,0.0
838,23.250295147588595
839,39.14802317592333
902,23.25
903,27.556156158447266
1051,3028.4779636191715
1313,0.0
1078,1817086.778171503
2,1, 7, 1, 0, 5,20.00,30.00,Monday
7,24.01933692671625
8,90.0
9,0.75
10,95.0
11,0.0
12,0.0
13,0.0
838,23.250291452575496
839,38.80818788202838
902,23.25
903,27.501691818237305
1051,3027.865832261045
1313,0.0
1078,1816719.499356627
2,1, 7, 1, 0, 5,30.00,40.00,Monday
7,23.96333087944314
8,90.0
9,0.8333333333333333
10,80.0
11,0.0
12,0.0
13,0.0
838,23.250287712768625
839,38.471530065645275
902,23.25
903,27.457653045654297
1051,3027.2745795452743
1313,0.0
1078,1816364.7477271645
2,1, 7, 1, 0, 5,40.00,50.00,Monday
7,23.907324832170033
8,90.0
9,0.9166666666666667
10,65.0
11,9.33333333333333
12,0.0
13,0.0
838,23.250283731395484
839,38.13808338598207
902,23.25
903,27.409374237060547
1051,2965.35575199356
1313,0.0
1078,1779213.451196136
2,1, 7, 1, 0, 5,50.00,60.00,Monday
7,23.851318784896925
8,90.0
9,1.0
10,50.0
11,13.5
12,0.0
13,0.0
838,23.250279969778088
839,37.80781630414783
902,23.25
903,27.346649169921875
1051,2924.861268665384
1313,0.0
1078,1754916.7611992306
2,1, 7, 1, 0, 6, 0.00,10.00,Monday
7,23.885726006605815
8,90.16666666666667
9,1.0
10,48.333333333333336
11,17.666666666666668
12,0.0
13,0.0
838,23.25027575005987
839,37.48087884572523
902,23.25
903,27.29281997680664
1051,2875.9762134234975
1313,0.0
1078,1725585.7280540986
2,1, 7, 1, 0, 6,10.00,20.00,Monday
7,23.920133228314697
8,90.33333333333334
9,1.0
10,46.666666666666664
11,21.833333333333336
12,0.0
13,0.0
838,23.250271404644486
839,37.157368126921526
902,23.25
903,27.403818130493164
1051,2823.1263413542233
1313,0.0
1078,1693875.804812534
2,1, 7, 1, 0, 6,20.00,30.00,Monday
7,23.954540450023583
8,90.5
9,1.0
10,45.0
11,26.0
12,0.0
13,0.0
838,23.250266995291913
839,36.83729482925293
902,23.25
903,27.392757415771484
1051,2767.9539285522574
1313,0.0
1078,1660772.3571313545
2,1, 7, 1, 0, 6,30.00,40.00,Monday
7,23.98894767173247
8,90.66666666666667
9,1.0
10,43.333333333333336
11,39.33333333333333
12,0.0
13,0.0
838,23.250262398032127
839,36.52062049298385
902,23.25
903,27.40114974975586
1051,2647.4689234743396
1313,0.0
1078,1588481.3540846037
2,1, 7, 1, 0, 6,40.00,50.00,Monday
7,24.023354893441354
8,90.83333333333334
9,1.0
10,41.666666666666664
11,52.666666666666664
12,0.0
13,0.0
838,23.25025761222185
839,36.20725296530083
902,23.25
903,27.393165588378906
1051,2495.8206747637664
1313,0.0
1078,1497492.40485826
2,1, 7, 1, 0, 6,50.00,60.00,Monday
7,24.05776211515024
8,91.0
9,1.0
10,40.0
11,66.0
12,0.0
13,0.0
838,23.250252232264653
839,35.897066759569476
902,23.25
903,27.392627716064453
1051,2367.3149849100705
1313,0.0
1078,1420388.9909460424
2,1, 7, 1, 0, 7, 0.00,10.00,Monday
7,24.296492267056674
8,89.83333333333334
9,1.0
10,58.33333333333333
11,79.33333333333334
12,0.0
13,0.0
838,23.249185843366764
839,36.22759465531401
902,23.25
903,27.38237953186035
1051,1895.443407164964
1313,0.0
1078,1137266.0442989783
2,1, 7, 1, 0, 7,10.00,20.00,Monday
7,24.535222418963105
8,88.66666666666667
9,1.0
10,76.66666666666666
11,92.66666666666667
12,0.0
13,0.0
838,23.249213424324097
839,36.922282573128186
902,23.25
903,27.60610580444336
1051,1745.6052368911287
1313,0.0
1078,1047363.1421346773
2,1, 7, 1, 0, 7,20.00,30.00,Monday
7,24.773952570869536
8,87.5
9,1.0
10,95.0
11,106.0
12,0.0
13,0.0
838,23.249286395919746
839,37.69824177936204
902,23.25
903,27.61183738708496
1051,1575.7654958095886
1313,0.0
1078,945459.2974857532
2,1, 7, 1, 0, 7,30.00,40.00,Monday
7,25.01268272277597
8,86.33333333333334
9,1.0
10,113.33333333333333
11,119.16666666666667
12,1.1666666666666665
13,0.0
838,23.249355203401123
839,38.43010014109516
902,23.25
903,27.65174102783203
1051,1423.4246066338735
1313,0.0
1078,854054.7639803241
2,1, 7, 1, 0, 7,40.00,50.00,Monday
7,25.2514128746824
8,85.16666666666666
9,1.0
10,131.66666666666669
11,132.33333333333331
12,2.333333333333333
13,0.0
838,23.249412937977308
839,39.097340357189175
902,23.25
903,27.673152923583984
1051,1344.2092381212371
1313,0.0
1078,806525.5428727423
2,1, 7, 1, 0, 7,50.00,60.00,Monday
7,25.490143026588832
8,84.0
9,1.0
10,150.0
11,145.5
12,3.5
13,0.0
838,23.24946042347527
839,39.715278877302254
902,23.25
903,27.673643112182617
1051,1285.2475129942356
1313,0.0
1078,771148.5077965413
2,1, 7, 1, 0, 8, 0.00,10.00,Monday
7,25.633509147493417
8,83.16666666666667
9,0.9166666666666667
10,150.0
11,158.66666666666669
12,4.666666666666667
13,0.0
838,23.24950260135532
839,40.3001625510697
902,23.25
903,27.6604061126709
1051,1223.7871307441721
1313,0.0
1078,734272.2784465033
2,1, 7, 1, 0, 8,10.00,20.00,Monday
7,25.77687526839801
8,82.33333333333334
9,0.8333333333333334
10,150.0
11,171.83333333333334
12,5.833333333333334
13,0.0
838,23.24954207086926
839,40.86118425909597
902,23.25
903,27.738115310668945
1051,1160.9046196582335
1313,0.0
1078,696542.7717949401
2,1, 7, 1, 0, 8,20.00,30.00,Monday
7,25.92024138930259
8,81.5
9,0.75
10,150.0
11,185.0
12,7.0
13,0.0
838,23.24958082197283
839,41.401995909582006
902,23.25
903,27.674457550048828
1051,1130.8868455401703
1313,0.0
1078,678532.1073241022
2,1, 7, 1, 0, 8,30.00,40.00,Monday
7,26.063607510207177
8,80.66666666666667
9,0.6666666666666667
10,150.0
11,200.5
12,8.666666666666666
13,0.0
838,23.24961954185005
839,41.923526764521924
902,23.25
903,27.619346618652344
1051,1107.6333848978015
1313,0.0
1078,664580.0309386809
2,1, 7, 1, 0, 8,40.00,50.00,Monday
7,26.20697363111176
8,79.83333333333334
9,0.5833333333333333
10,150.0
11,216.0
12,10.333333333333332
13,0.0
838,23.249658682161947
839,42.425849511715676
902,23.25
903,27.541275024414063
1051,1081.6034065576096
1313,0.0
1078,648962.0439345657
2,1, 7, 1, 0, 8,50.00,60.00,Monday
7,26.350339752016346
8,79.0
9,0.5
10,150.0
11,231.5
12,12.0
13,0.0
838,23.249698259239885
839,42.90880708164381
902,23.25
903,27.45635986328125
1051,1052.8566393767562
1313,0.0
1078,631713.9836260537
2,1, 7, 1, 0, 9, 0.00,10.00,Monday
7,26.36521988410705
8,78.16666666666667
9,0.6666666666666667
10,173.33333333333334
11,247.0
12,13.666666666666668
13,20.0
838,23.957161629290447
839,42.43689001281254
902,23.25
903,27.362804412841797
1051,508.7250187595707
1313,0.0
1078,305235.0112557424
2,1, 7, 1, 0, 9,10.00,20.00,Monday
7,26.380100016197755
8,77.33333333333334
9,0.8333333333333334
10,196.66666666666666
11,262.5
12,15.333333333333334
13,20.0
838,24.647398447623974
839,42.13360754714113
902,23.25
903,27.215652465820313
1051,525.5120970803753
1313,0.0
1078,315307.25824822515
2,1, 7, 1, 0, 9,20.00,30.00,Monday
7,26.394980148288454
8,76.5
9,1.0
10,220.0
11,278.0
12,17.0
13,20.0
838,25.222340687163832
839,42.15654761737021
902,21.342597961425774
903,26.693634033203118
1051,657.1867414983608
1313,0.0
1078,394312.0448990166
2,1, 7, 1, 0, 9,30.00,40.00,Monday
7,26.40986028037916
8,75.66666666666666
9,1.1666666666666667
10,243.33333333333331
11,284.0
12,17.5
13,20.0
838,25.708093267722333
839,42.5188398345276
902,19.07596969604493
903,26.19762039184571
1051,1190.1932209834908
1313,0.0
1078,714115.9325900942
2,1, 7, 1, 0, 9,40.00,50.00,Monday
7,26.424740412469863
8,74.83333333333334
9,1.3333333333333333
10,266.6666666666667
11,290.0
12,18.0
13,20.0
838,25.929500150818985
839,44.16945005077098
902,17.024587631225586
903,25.9334659576416
1051,1700.2255797670036
1313,0.0
1078,1020135.3478602022
2,1, 7, 1, 0, 9,50.00,60.00,Monday
7,26.439620544560565
8,74.0
9,1.5
10,290.0
11,296.0
12,18.5
13,20.0
838,25.8623996531559
839,46.933350743887914
902,16.488901138305664
903,25.856149673461914
1051,1911.8955470066503
1313,0.0
1078,1147137.3282039901
2,1, 7, 1, 0,10, 0.00,10.00,Monday
7,26.6567689327169
8,74.0
9,1.5
10,290.0
11,302.0
12,19.0
13,20.0
838,25.857602556356408
839,49.92945516666929
902,16.632776260375977
903,25.856075286865234
1051,2479.605278239986
1313,0.0
1078,1487763.1669439918
2,1, 7, 1, 0,10,10.00,20.00,Monday
7,26.873917320873236
8,74.0
9,1.5
10,290.0
11,308.0
12,19.5
13,20.0
838,25.827151890164576
839,53.07639959685253
902,16.5728816986084
903,25.82194709777832
1051,2767.754694209737
1313,0.0
1078,1660652.816525842
2,1, 7, 1, 0,10,20.00,30.00,Monday
7,27.091065709029564
8,74.0
9,1.5
10,290.0
11,314.0
12,20.0
13,20.0
838,25.804958294708786
839,55.96124380332627
902,16.739662170410156
903,25.801071166992188
1051,2937.973287855264
1313,0.0
1078,1762783.9727131585
2,1, 7, 1, 0,10,30.00,40.00,Monday
7,27.308214097185903
8,74.0
9,1.5
10,290.0
11,323.3333333333333
12,22.666666666666664
13,20.0
838,25.789668361856357
839,58.444920612753
902,16.80730628967285
903,25.786956787109375
1051,3248.2636182449364
1313,0.0
1078,1948958.170946962
2,1, 7, 1, 0,10,40.00,50.00,Monday
7,27.52536248534223
8,74.0
9,1.5
10,290.0
11,332.66666666666663
12,25.333333333333332
13,20.0
838,25.779603387065556
839,60.37499322709712
902,16.889331817626953
903,25.7780818939209
1051,3755.8263941926325
1313,0.0
1078,2253495.8365155794
2,1, 7, 1, 0,10,50.00,60.00,Monday
7,27.742510873498567
8,74.0
9,1.5
10,290.0
11,342.0
12,28.0
13,20.0
838,25.764898272059657
839,61.63722621333343
902,17.06048011779785
903,25.76356315612793
1051,4341.367642297913
1313,0.0
1078,2604820.585378748
2,1, 7, 1, 0,11, 0.00,10.00,Monday
7,27.533396109638367
8,74.0
9,1.6833333333333333
10,265.0
11,351.3333333333333
12,30.666666666666668
13,20.0
838,25.753298558083507
839,62.265614110434505
902,17.207443237304688
903,25.752723693847656
1051,4685.780664392536
1313,0.0
1078,2811468.3986355215
2,1, 7, 1, 0,11,10.00,20.00,Monday
7,27.32428134577817
8,74.0
9,1.8666666666666667
10,240.0
11,360.6666666666667
12,33.333333333333336
13,20.0
838,25.738199929374783
839,62.44789366888806
902,17.23044204711914
903,25.73745346069336
1051,4946.401977767504
1313,0.0
1078,2967841.186660502
2,1, 7, 1, 0,11,20.00,30.00,Monday
7,27.11516658191797
8,74.0
9,2.05
10,215.0
11,370.0
12,36.0
13,20.0
838,25.711912054577148
839,62.36202740916129
902,17.37739372253418
903,25.709941864013672
1051,5151.153901056172
1313,0.0
1078,3090692.340633703
2,1, 7, 1, 0,11,30.00,40.00,Monday
7,26.90605181805777
8,74.0
9,2.2333333333333334
10,190.0
11,375.83333333333337
12,37.0
13,20.0
838,25.695406302121363
839,62.11996883356349
902,17.46871566772461
903,25.694721221923828
1051,5178.9976305594155
1313,0.0
1078,3107398.5783356493
2,1, 7, 1, 0,11,40.00,50.00,Monday
7,26.69693705419757
8,74.0
9,2.416666666666667
10,165.0
11,381.66666666666663
12,38.0
13,20.0
838,25.683612850549423
839,61.83545440400694
902,17.49241065979004
903,25.68353271484375
1051,5197.2299484339865
1313,0.0
1078,3118337.9690603917
2,1, 7, 1, 0,11,50.00,60.00,Monday
7,26.48782229033737
8,74.0
9,2.6
10,140.0
11,387.5
12,39.0
13,20.0
838,25.674341740601772
839,61.56284751807913
902,17.505420684814453
903,25.674564361572266
1051,5167.9131860960315
1313,0.0
1078,3100747.911657619
2,1, 7, 1, 0,12, 0.00,10.00,Monday
7,26.436476129835903
8,74.83333333333334
9,2.416666666666667
10,136.66666666666666
11,393.33333333333337
12,40.0
13,16.0
838,25.669894667747673
839,61.327880025315004
902,17.483060836791992
903,25.670434951782227
1051,4808.751569298993
1313,0.0
1078,2885250.941579396
2,1, 7, 1, 0,12,10.00,20.00,Monday
7,26.385129969334436
8,75.66666666666667
9,2.2333333333333334
10,133.33333333333334
11,399.16666666666663
12,41.0
13,16.0
838,25.69947384266276
839,61.151754171618144
902,16.813566207885742
903,25.704011917114258
1051,4634.354999123249
1313,0.0
1078,2780612.9994739494
2,1, 7, 1, 0,12,20.00,30.00,Monday
7,26.333783808832965
8,76.5
9,2.05
10,130.0
11,405.0
12,42.0
13,16.0
838,25.7293325938653
839,61.31315913877932
902,16.898584365844727
903,25.73383140563965
1051,4206.9503246955755
1313,0.0
1078,2524170.1948173456
2,1, 7, 1, 0,12,30.00,40.00,Monday
7,26.282437648331495
8,77.33333333333333
9,1.8666666666666667
10,126.66666666666667
11,396.16666666666663
12,38.833333333333336
13,16.0
838,25.776621706071705
839,61.65557214084453
902,16.664867401123047
903,25.78328514099121
1051,4005.543270044521
1313,0.0
1078,2403325.9620267125
2,1, 7, 1, 0,12,40.00,50.00,Monday
7,26.23109148783003
8,78.16666666666667
9,1.6833333333333331
10,123.33333333333333
11,387.33333333333337
12,35.66666666666667
13,16.0
838,25.77920142964721
839,62.12888652560431
902,16.82811737060547
903,25.7801456451416
1051,4174.0891322005045
1313,0.0
1078,2504453.4793203026
2,1, 7, 1, 0,12,50.00,60.00,Monday
7,26.17974532732856
8,79.0
9,1.5
10,120.0
11,378.5
12,32.5
13,16.0
838,25.771915743867243
839,62.51011282606931
902,17.206716537475586
903,25.771604537963867
1051,4195.849918379995
1313,0.0
1078,2517509.951027997
2,1, 7, 1, 0,13, 0.00,10.00,Monday
7,26.161776525088115
8,79.00000000000001
9,1.6
10,120.0
11,369.66666666666663
12,29.333333333333332
13,8.0
838,25.77482491524325
839,62.44288944252692
902,17.4921817779541
903,25.775747299194336
1051,3402.5628259983505
1313,0.0
1078,2041537.6955990102
2,1, 7, 1, 0,13,10.00,20.00,Monday
7,26.14380772284766
8,79.0
9,1.7
10,120.0
11,360.83333333333337
12,26.166666666666664
13,8.0
838,25.7439295716907
839,62.332908185115286
902,16.038726806640625
903,25.740930557250977
1051,3475.299279317539
1313,0.0
1078,2085179.5675905235
2,1, 7, 1, 0,13,20.00,30.00,Monday
7,26.125838920607215
8,79.0
9,1.8
10,120.0
11,352.0
12,23.0
13,8.0
838,25.750947285590257
839,62.121590734066224
902,16.625709533691406
903,25.752206802368164
1051,3238.874155436439
1313,0.0
1078,1943324.4932618635
2,1, 7, 1, 0,13,30.00,40.00,Monday
7,26.107870118366762
8,79.0
9,1.9
10,120.0
11,349.33333333333337
12,23.5
13,8.0
838,25.748058079666386
839,62.02169938669261
902,16.445619583129883
903,25.748210906982422
1051,3176.1985612658214
1313,0.0
1078,1905719.1367594928
2,1, 7, 1, 0,13,40.00,50.00,Monday
7,26.089901316126316
8,79.0
9,2.0
10,120.0
11,346.66666666666663
12,24.0
13,8.0
838,25.747771876435184
839,61.971416295464266
902,16.48607063293457
903,25.748188018798828
1051,3042.5525297280533
1313,0.0
1078,1825531.517836832
2,1, 7, 1, 0,13,50.00,60.00,Monday
7,26.071932513885866
8,79.0
9,2.1
10,120.0
11,344.0
12,24.5
13,8.0
838,25.749295043417597
839,61.94896135595894
902,16.43951988220215
903,25.74989128112793
1051,2960.788788012332
1313,0.0
1078,1776473.2728073993
2,1, 7, 1, 0,14, 0.00,10.00,Monday
7,26.07870613861205
8,79.00000000000001
9,2.1833333333333336
10,120.0
11,341.33333333333337
12,25.0
13,16.0
838,25.74787106044824
839,62.29503131288601
902,16.43787384033203
903,25.74819564819336
1051,3553.659154582715
1313,0.0
1078,2132195.492749629
2,1, 7, 1, 0,14,10.00,20.00,Monday
7,26.085479763338235
8,79.0
9,2.2666666666666666
10,120.0
11,338.66666666666663
12,25.5
13,16.0
838,25.782553247984335
839,62.622561435343115
902,17.34537124633789
903,25.787389755249023
1051,3364.477127958844
1313,0.0
1078,2018686.2767753063
2,1, 7, 1, 0,14,20.00,30.00,Monday
7,26.092253388064414
8,79.0
9,2.35
10,120.0
11,336.0
12,26.0
13,16.0
838,25.76810895807902
839,63.02845429156765
902,16.98273277282715
903,25.76691436767578
1051,3587.8614399607036
1313,0.0
1078,2152716.863976422
2,1, 7, 1, 0,14,30.00,40.00,Monday
7,26.0990270127906
8,79.0
9,2.4333333333333336
10,120.0
11,318.0
12,22.833333333333336
13,16.0
838,25.75134786502303
839,63.31165715606688
902,17.230064392089844
903,25.74994468688965
1051,3534.2406490815165
1313,0.0
1078,2120544.38944891
2,1, 7, 1, 0,14,40.00,50.00,Monday
7,26.10580063751678
8,79.0
9,2.516666666666667
10,120.0
11,300.0
12,19.666666666666668
13,16.0
838,25.722592276211316
839,63.534855385676124
902,17.408809661865234
903,25.7195987701416
1051,3629.4532752287882
1313,0.0
1078,2177671.965137273
2,1, 7, 1, 0,14,50.00,60.00,Monday
7,26.112574262242966
8,79.0
9,2.6
10,120.0
11,282.0
12,16.5
13,16.0
838,25.691807285126032
839,63.700515604454786
902,17.698223114013672
903,25.68854331970215
1051,3625.877249879362
1313,0.0
1078,2175526.3499276172
2,1, 7, 1, 0,15, 0.00,10.00,Monday
7,25.906898639528176
8,79.83333333333334
9,2.85
10,125.0
11,264.0
12,13.333333333333332
13,20.0
838,25.663875875299187
839,63.99465536219042
902,17.91610336303711
903,25.660846710205078
1051,3744.3850095669213
1313,0.0
1078,2246631.0057401527
2,1, 7, 1, 0,15,10.00,20.00,Monday
7,25.70122301681339
8,80.66666666666667
9,3.1
10,130.0
11,246.0
12,10.166666666666666
13,20.0
838,25.655146055714837
839,64.25552069652727
902,18.569162368774414
903,25.654848098754883
1051,3608.24916560969
1313,0.0
1078,2164949.499365814
2,1, 7, 1, 0,15,20.00,30.00,Monday
7,25.4955473940986
8,81.5
9,3.3499999999999996
10,135.0
11,228.0
12,7.0
13,20.0
838,25.60850405380795
839,64.57106613822046
902,18.782121658325195
903,25.602712631225586
1051,3741.549182973925
1313,0.0
1078,2244929.509784355
2,1, 7, 1, 0,15,30.00,40.00,Monday
7,25.289871771383808
8,82.33333333333334
9,3.5999999999999996
10,140.0
11,234.0
12,10.0
13,20.0
838,25.57400270314018
839,64.7627381413384
902,19.33960723876953
903,25.570058822631836
1051,3686.2896895149597
1313,0.0
1078,2211773.813708976
2,1, 7, 1, 0,15,40.00,50.00,Monday
7,25.084196148669022
8,83.16666666666666
9,3.8499999999999996
10,145.0
11,240.0
12,13.0
13,20.0
838,25.566189274752446
839,64.82550886563484
902,19.34126091003418
903,25.566083908081055
1051,3620.4424610770766
1313,0.0
1078,2172265.476646246
2,1, 7, 1, 0,15,50.00,60.00,Monday
7,24.878520525954233
8,84.0
9,4.1
10,150.0
11,246.0
12,16.0
13,20.0
838,25.56281636691337
839,64.86235933531312
902,19.383562088012695
903,25.563344955444336
1051,3609.4602055778214
1313,0.0
1078,2165676.123346693
2,1, 7, 1, 0,16, 0.00,10.00,Monday
7,24.703275545617004
8,84.83333333333333
9,4.1
10,151.66666666666666
11,252.0
12,19.0
13,20.0
838,25.560540211419084
839,64.94805266244688
902,19.431575775146484
903,25.561193466186523
1051,3361.0195875408276
1313,0.0
1078,2016611.7525244965
2,1, 7, 1, 0,16,10.00,20.00,Monday
7,24.528030565279774
8,85.66666666666667
9,4.1
10,153.33333333333334
11,258.0
12,22.000000000000004
13,20.0
838,25.621068732404304
839,64.89074813763658
902,19.27532958984375
903,25.629470825195313
1051,3035.7504316262425
1313,0.0
1078,1821450.2589757456
2,1, 7, 1, 0,16,20.00,30.00,Monday
7,24.352785584942545
8,86.5
9,4.1
10,155.0
11,264.0
12,25.0
13,20.0
838,25.627614389702625
839,65.01277735151383
902,19.15937614440918
903,25.629444122314453
1051,3242.6181534067637
1313,0.0
1078,1945570.8920440583
2,1, 7, 1, 0,16,30.00,40.00,Monday
7,24.177540604605316
8,87.33333333333333
9,4.1
10,156.66666666666666
11,240.0
12,20.833333333333336
13,20.0
838,25.645287368328734
839,65.07051309411037
902,19.438697814941406
903,25.64847755432129
1051,3002.18831226031
1313,0.0
1078,1801312.987356186
2,1, 7, 1, 0,16,40.00,50.00,Monday
7,24.002295624268086
8,88.16666666666667
9,4.1
10,158.33333333333334
11,216.00000000000003
12,16.666666666666668
13,20.0
838,25.620172917570283
839,65.22280764340931
902,19.847307205200195
903,25.61786651611328
1051,3105.4910851446243
1313,0.0
1078,1863294.6510867747
2,1, 7, 1, 0,16,50.00,60.00,Monday
7,23.827050643930857
8,89.0
9,4.1
10,160.0
11,192.0
12,12.5
13,20.0
838,25.61695578375452
839,65.27485919375398
902,20.53424835205078
903,25.6175537109375
1051,2884.0104782491685
1313,0.0
1078,1730406.2869495011
2,1, 7, 1, 0,17, 0.00,10.00,Monday
7,23.76939252196301
8,89.83333333333334
9,3.933333333333333
10,156.66666666666666
11,168.0
12,8.333333333333332
13,20.0
838,25.61098884632117
839,65.26890751116096
902,20.947731018066406
903,25.61138153076172
1051,2645.6573457775644
1313,0.0
1078,1587394.4074665387
2,1, 7, 1, 0,17,10.00,20.00,Monday
7,23.711734399995166
8,90.66666666666667
9,3.7666666666666666
10,153.33333333333334
11,144.0
12,4.166666666666666
13,20.0
838,25.693895760743832
839,64.8138280522328
902,21.218786239624023
903,25.703462600708008
1051,2371.0704069709745
1313,0.0
1078,1422642.2441825848
2,1, 7, 1, 0,17,20.00,30.00,Monday
7,23.65407627802732
8,91.5
9,3.5999999999999996
10,150.0
11,120.0
12,0.0
13,20.0
838,25.69435888856466
839,64.66477514871815
902,21.418991088867188
903,25.695539474487305
1051,2480.9885848762315
1313,0.0
1078,1488593.150925739
2,1, 7, 1, 0,17,30.00,40.00,Monday
7,23.59641815605947
8,92.33333333333334
9,3.433333333333333
10,146.66666666666666
11,113.16666666666666
12,0.0
13,20.0
838,25.751607384991033
839,64.26334889992498
902,22.037399291992188
903,25.758440017700195
1051,2236.867569366881
1313,0.0
1078,1342120.5416201286
2,1, 7, 1, 0,17,40.00,50.00,Monday
7,23.538760034091624
8,93.16666666666667
9,3.2666666666666666
10,143.33333333333334
11,106.33333333333334
12,0.0
13,20.0
838,25.77168583699406
839,64.03132741150584
902,22.015111923217773
903,25.774934768676758
1051,2301.2419097828865
1313,0.0
1078,1380745.145869732
2,1, 7, 1, 0,17,50.00,60.00,Monday
7,23.481101912123776
8,94.0
9,3.1
10,140.0
11,99.5
12,0.0
13,20.0
838,25.827311253170127
839,63.67364446870549
902,22.34938621520996
903,25.833797454833984
1051,2140.1499751537212
1313,0.0
1078,1284089.9850922327
2,1, 7, 1, 0,18, 0.00,10.00,Monday
7,23.29145376125804
8,94.00000000000001
9,2.9333333333333336
10,141.66666666666666
11,92.66666666666666
12,0.0
13,20.0
838,25.859175070509533
839,63.396891002954995
902,22.413021087646484
903,25.863492965698242
1051,2135.0724015543547
1313,0.0
1078,1281043.4409326129
2,1, 7, 1, 0,18,10.00,20.00,Monday
7,23.101805610392304
8,94.0
9,2.7666666666666666
10,143.33333333333334
11,85.83333333333334
12,0.0
13,20.0
838,25.97134301027437
839,62.79933447080337
902,22.502046585083008
903,25.981950759887695
1051,1853.9698974144683
1313,0.0
1078,1112381.938448681
2,1, 7, 1, 0,18,20.00,30.00,Monday
7,22.91215745952657
8,94.0
9,2.6
10,145.0
11,79.0
12,0.0
13,20.0
838,25.957200068826737
839,62.66194565273562
902,22.411579132080078
903,25.956960678100586
1051,2080.753356846945
1313,0.0
1078,1248452.014108167
2,1, 7, 1, 0,18,30.00,40.00,Monday
7,22.722509308660833
8,94.0
9,2.4333333333333336
10,146.66666666666666
11,68.00000000000001
12,0.0
13,20.0
838,26.022632136198457
839,62.20327550878234
902,22.920211791992188
903,26.031047821044922
1051,1793.65454892609
1313,0.0
1078,1076192.729355654
2,1, 7, 1, 0,18,40.00,50.00,Monday
7,22.532861157795093
8,94.0
9,2.2666666666666666
10,148.33333333333334
11,57.0
12,0.0
13,20.0
838,26.04405027974779
839,61.88740967321495
902,22.96061134338379
903,26.048086166381836
1051,1879.5803872659085
1313,0.0
1078,1127748.232359545
2,1, 7, 1, 0,18,50.00,60.00,Monday
7,22.343213006929357
8,94.0
9,2.1
10,150.0
11,46.0
12,0.0
13,20.0
838,26.09554456079809
839,61.452898285800714
902,23.25
903,26.102588653564453