Program Version,EnergyPlus, Version 24.1.0-9d7789a3ac, YMD=2025.08.12 16:05
1,5,Environment Title[],Latitude[deg],Longitude[deg],Time Zone[],Elevation[m]
2,8,Day of Simulation[],Month[],Day of Month[],DST Indicator[1=yes 0=no],Hour[],StartMinute[],EndMinute[],DayType
3,5,Cumulative Day of Simulation[],Month[],Day of Month[],DST Indicator[1=yes 0=no],DayType  ! When Daily Report Variables Requested
4,2,Cumulative Days of Simulation[],Month[]  ! When Monthly Report Variables Requested
5,1,Cumulative Days of Simulation[] ! When Run Period Report Variables Requested
6,1,Calendar Year of Simulation[] ! When Annual Report Variables Requested
7,1,Environment,Site Outdoor Air Drybulb Temperature [C] !TimeStep
10,1,Environment,Site Outdoor Air Relative Humidity [%] !TimeStep
11,1,Environment,Site Wind Speed [m/s] !TimeStep
12,1,Environment,Site Wind Direction [deg] !TimeStep
14,1,Environment,Site Diffuse Solar Radiation Rate per Area [W/m2] !TimeStep
15,1,Environment,Site Direct Solar Radiation Rate per Area [W/m2] !TimeStep
1992,1,CORE_BOTTOM,Zone Air Temperature [C] !TimeStep
1993,1,CORE_BOTTOM,Zone Air Relative Humidity [%] !TimeStep
2130,1,CORE_BOTTOM,Zone Thermostat Heating Setpoint Temperature [C] !TimeStep
2131,1,CORE_BOTTOM,Zone Thermostat Cooling Setpoint Temperature [C] !TimeStep
2132,1,CORE_MID,Zone Air Temperature [C] !TimeStep
2133,1,CORE_MID,Zone Air Relative Humidity [%] !TimeStep
2198,1,CORE_TOP,Zone Air Temperature [C] !TimeStep
2199,1,CORE_TOP,Zone Air Relative Humidity [%] !TimeStep
2264,1,FIRSTFLOOR_PLENUM,Zone Air Temperature [C] !TimeStep
2265,1,FIRSTFLOOR_PLENUM,Zone Air Relative Humidity [%] !TimeStep
2330,1,MIDFLOOR_PLENUM,Zone Air Temperature [C] !TimeStep
2331,1,MIDFLOOR_PLENUM,Zone Air Relative Humidity [%] !TimeStep
2396,1,PERIMETER_BOT_ZN_1,Zone Air Temperature [C] !TimeStep
2397,1,PERIMETER_BOT_ZN_1,Zone Air Relative Humidity [%] !TimeStep
2462,1,PERIMETER_BOT_ZN_2,Zone Air Temperature [C] !TimeStep
2463,1,PERIMETER_BOT_ZN_2,Zone Air Relative Humidity [%] !TimeStep
2528,1,PERIMETER_BOT_ZN_3,Zone Air Temperature [C] !TimeStep
2529,1,PERIMETER_BOT_ZN_3,Zone Air Relative Humidity [%] !TimeStep
2594,1,PERIMETER_BOT_ZN_4,Zone Air Temperature [C] !TimeStep
2595,1,PERIMETER_BOT_ZN_4,Zone Air Relative Humidity [%] !TimeStep
2660,1,PERIMETER_MID_ZN_1,Zone Air Temperature [C] !TimeStep
2661,1,PERIMETER_MID_ZN_1,Zone Air Relative Humidity [%] !TimeStep
2726,1,PERIMETER_MID_ZN_2,Zone Air Temperature [C] !TimeStep
2727,1,PERIMETER_MID_ZN_2,Zone Air Relative Humidity [%] !TimeStep
2792,1,PERIMETER_MID_ZN_3,Zone Air Temperature [C] !TimeStep
2793,1,PERIMETER_MID_ZN_3,Zone Air Relative Humidity [%] !TimeStep
2858,1,PERIMETER_MID_ZN_4,Zone Air Temperature [C] !TimeStep
2859,1,PERIMETER_MID_ZN_4,Zone Air Relative Humidity [%] !TimeStep
2924,1,PERIMETER_TOP_ZN_1,Zone Air Temperature [C] !TimeStep
2925,1,PERIMETER_TOP_ZN_1,Zone Air Relative Humidity [%] !TimeStep
2990,1,PERIMETER_TOP_ZN_2,Zone Air Temperature [C] !TimeStep
2991,1,PERIMETER_TOP_ZN_2,Zone Air Relative Humidity [%] !TimeStep
3056,1,PERIMETER_TOP_ZN_3,Zone Air Temperature [C] !TimeStep
3057,1,PERIMETER_TOP_ZN_3,Zone Air Relative Humidity [%] !TimeStep
3122,1,PERIMETER_TOP_ZN_4,Zone Air Temperature [C] !TimeStep
3123,1,PERIMETER_TOP_ZN_4,Zone Air Relative Humidity [%] !TimeStep
3188,1,TOPFLOOR_PLENUM,Zone Air Temperature [C] !TimeStep
3189,1,TOPFLOOR_PLENUM,Zone Air Relative Humidity [%] !TimeStep
3507,1,Whole Building,Facility Total HVAC Electricity Demand Rate [W] !TimeStep
End of Data Dictionary
1,RUN PERIOD 1,  35.25, 136.93,   9.00,  17.00
2,1, 7, 1, 1, 1, 0.00,10.00,Monday
7,24.438156868144937
10,88.0
11,2.3333333333333335
12,195.0
14,0.0
15,0.0
1992,26.07380992412103
1993,43.73821636902838
2130,15.6
2131,26.7
2132,25.790140806214993
2133,44.61537846529842
2198,25.655357093180335
2199,45.049190391735344
2264,25.32236526779207
2265,51.58201995613224
2330,25.256730147136263
2331,53.45559680408047
2396,25.233430091159292
2397,59.03038683810369
2462,25.221253793421198
2463,58.52732582565926
2528,25.20120908252674
2529,57.70265525311371
2594,25.215433819026796
2595,58.552820747490244
2660,25.587124536598104
2661,59.91807511437231
2726,25.59075998330034
2727,60.844540115523024
2792,25.57158125782348
2793,59.99053325694692
2858,25.578628417945946
2859,60.909905357224204
2924,25.464161821246087
2925,62.58062928087209
2990,25.454162174873083
2991,63.624584045061994
3056,25.448097780725963
3057,62.65977734757314
3122,25.45667112252714
3123,63.602292839516636
3188,24.91506627876536
3189,55.7944973067203
3507,200.83153814003703
2,1, 7, 1, 1, 1,10.00,20.00,Monday
7,24.584619966845523
10,87.0
11,2.066666666666667
12,210.0
14,0.0
15,0.0
1992,26.073468483162852
1993,43.73914048185033
2130,15.6
2131,26.7
2132,25.795152610968522
2133,44.60217182868229
2198,25.658632030528683
2199,45.04048051074536
2264,25.326205566639885
2265,51.73884209177556
2330,25.261814992888887
2331,53.646738152855654
2396,25.236389734511956
2397,59.26141123964054
2462,25.222162002742014
2463,58.78231891405257
2528,25.20396468445835
2529,57.94905992931133
2594,25.219047175790223
2595,58.79839262375358
2660,25.596583301169538
2661,60.21243367723949
2726,25.598127648362667
2727,61.1485459903578
2792,25.58073755160035
2793,60.285960950997286
2858,25.5891503055509
2859,61.202336116537204
2924,25.4728106561735
2925,62.905269228790395
2990,25.460769370567142
2991,63.956628604151256
3056,25.45641414608729
3057,62.985595826402665
3122,25.46649833635957
3123,63.92233301114386
3188,24.91466447179427
3189,56.02980423815177
3507,201.19897794078503
2,1, 7, 1, 1, 1,20.00,30.00,Monday
7,24.73108306554611
10,86.0
11,1.8
12,225.0
14,0.0
15,0.0
1992,26.072702862789804
1993,43.741155698868596
2130,15.6
2131,26.7
2132,25.800139991505013
2133,44.58902630453963
2198,25.661797829130855
2199,45.03205674537273
2264,25.330371778232614
2265,51.872155145509694
2330,25.26735939304118
2331,53.80836312129578
2396,25.239454385600823
2397,59.45853563503879
2462,25.22387706726073
2463,58.99865009316254
2528,25.20682646371732
2529,58.15968375084669
2594,25.222151542464015
2595,59.00985290149167
2660,25.60626695781034
2661,60.458565645947374
2726,25.606425301754864
2727,61.40110141293529
2792,25.590125371440248
2793,60.53313869619848
2858,25.599258701898645
2859,61.44813012094487
2924,25.481649641767977
2925,63.17639295030412
2990,25.468321498364148
2991,64.231853029721
3056,25.46492580192434
3057,63.257885953894466
3122,25.475835115206824
3123,64.19089475588626
3188,24.914449041836246
3189,56.232701224674784
3507,201.19897794078503
2,1, 7, 1, 1, 1,30.00,40.00,Monday
7,24.877546164246702
10,85.0
11,1.5333333333333334
12,240.0
14,0.0
15,0.0
1992,26.07363701679339
1993,43.73875300988359
2130,15.6
2131,26.7
2132,25.805261254056553
2133,44.575512635273654
2198,25.665042066081178
2199,45.02340608038193
2264,25.33453346002232
2265,51.9833073992394
2330,25.272970104563175
2331,53.942271558306956
2396,25.242451610449308
2397,59.623256032544816
2462,25.22616648709888
2463,59.178055465246956
2528,25.209673469745777
2529,58.33585818996249
2594,25.224947936536772
2595,59.18745731539274
2660,25.61571227042259
2661,60.66001842786388
2726,25.61513859289698
2727,61.6060363956329
2792,25.599329776552917
2793,60.73544567154558
2858,25.60884895045014
2859,61.64969442349255
2924,25.490131030074437
2925,63.39855741698136
2990,25.476213129403757
2991,64.45514942783751
3056,25.4731368739243
3057,63.48101435381817
3122,25.484511653675153
3123,64.41129276682008
3188,24.913996962933748
3189,56.40528335071817
3507,201.19897794078503
2,1, 7, 1, 1, 1,40.00,50.00,Monday
7,25.02400926294729
10,84.0
11,1.2666666666666666
12,255.0
14,0.0
15,0.0
1992,26.076092124210536
1993,43.73240779886497
2130,15.6
2131,26.7
2132,25.810329960572037
2133,44.562130564150465
2198,25.66827712846129
2199,45.01477125342493
2264,25.33845189795906
2265,52.07382994048017
2330,25.278294050521172
2331,54.050684926446635
2396,25.245130968019918
2397,59.758026328158095
2462,25.228449661017468
2463,59.32425312911109
2528,25.212281227502384
2529,58.47998902947982
2594,25.22741217801662
2595,59.33300507504199
2660,25.624443552799057
2661,60.82125885128852
2726,25.62346365206258
2727,61.76913936120073
2792,25.607907821749784
2793,60.897217486879065
2858,25.61767514094147
2859,61.81081550132881
2924,25.497806449915803
2925,63.5768429663235
2990,25.483637917518873
2991,64.63312554846698
3056,25.480634179599218
3057,63.65991970561553
3122,25.492323139741643
3123,64.58786918344403
3188,24.91304398822667
3189,56.54973904460202
3507,201.19897794078503
2,1, 7, 1, 1, 1,50.00,60.00,Monday
7,25.170472361647878
10,83.0
11,1.0
12,270.0
14,0.0
15,0.0
1992,26.07927457595801
1993,43.724178659046295
2130,15.6
2131,26.7
2132,25.815485954459376
2133,44.54851774758088
2198,25.67150907714648
2199,45.00614222114619
2264,25.342071467685003
2265,52.14462177442648
2330,25.28321474969235
2331,54.13497484683255
2396,25.24736363111405
2397,59.86473891628036
2462,25.230379613573618
2463,59.44000233237979
2528,25.21615262910172
2529,58.58831650067332
2594,25.229458439063787
2595,59.44833036900968
2660,25.632493583822964
2661,60.94460384348762
2726,25.631203294109216
2727,61.89369311534465
2792,25.617742788639134
2793,61.01407738675625
2858,25.625823325464943
2859,61.93374203057446
2924,25.504596443125937
2925,63.714544062992275
2990,25.49027841012354
2991,64.77012725642709
3056,25.489325557204904
3057,63.790371073795384
3122,25.499249760919056
3123,64.723836557376
3188,24.911395817291062
3189,56.667902974269836
3507,201.19897794078503
2,1, 7, 1, 1, 2, 0.00,10.00,Monday
7,25.14268695408174
10,83.5
11,1.0
12,295.0
14,0.0
15,0.0
1992,26.08255024535344
1993,43.715709434020745
2130,15.6
2131,26.7
2132,25.820607708298716
2133,44.535002453596725
2198,25.674653339140185
2199,44.9977489378802
2264,25.345194547413172
2265,52.20805745302057
2330,25.287433912019065
2331,54.210593259218065
2396,25.246950823535116
2397,59.96828704851735
2462,25.231164748320587
2463,59.54630993649816
2528,25.219035430093548
2529,58.686672509118296
2594,25.230389473665884
2595,59.55410971038094
2660,25.63706135581878
2661,61.063408470724745
2726,25.63709301185155
2727,62.007803267262986
2792,25.62595397366539
2793,61.11965248437661
2858,25.63211688301288
2859,62.04625765606255
2924,25.50755862455956
2925,63.84821535995615
2990,25.494861267448286
2991,64.8965704899408
3056,25.4962011987454
3057,63.90915270088241
3122,25.5041030003575
3123,64.8492883967771
3188,24.908931040478027
3189,56.776559639042844
3507,201.19897794078503
2,1, 7, 1, 1, 2,10.00,20.00,Monday
7,25.114901546515604
10,84.0
11,1.0
12,320.0
14,0.0
15,0.0
1992,26.085792787147497
1993,43.707328824913795
2130,15.6
2131,26.7
2132,25.825816366487285
2133,44.52126087853118
2198,25.677736750791897
2199,44.98952077859734
2264,25.347889596542053
2265,52.27128305134379
2330,25.291033293572205
2331,54.28631845445169
2396,25.245505299434345
2397,60.07353921574602
2462,25.23094359849113
2463,59.65400009050599
2528,25.220231328985
2529,58.78870126897545
2594,25.230333728903297
2595,59.661199660971484
2660,25.639993861486104
2661,61.18535651103142
2726,25.641401671323223
2727,62.12497329417892
2792,25.631872963666087
2793,61.230719459018815
2858,25.636830006190365
2859,62.16183237556305
2924,25.508631358339212
2925,63.98618283790876
2990,25.497629703111784
2991,65.02721041174843
3056,25.50048372035392
3057,64.03485725540054
3122,25.50712418315254
3123,64.97899473599583
3188,24.90586845506076
3189,56.88519532454323
3507,201.19897794078503
2,1, 7, 1, 1, 2,20.00,30.00,Monday
7,25.08711613894946
10,84.5
11,1.0
12,345.0
14,0.0
15,0.0
1992,26.088968564038204
1993,43.699122875548234
2130,15.6
2131,26.7
2132,25.83095788742921
2133,44.50770298146157
2198,25.680707213182092
2199,44.98159489119449
2264,25.350309373800393
2265,52.336361893863625
2330,25.29420155594627
2331,54.36465895707469
2396,25.244242760994435
2397,60.179788434261106
2462,25.230219725966986
2463,59.765175418470065
2528,25.220308236650926
2529,58.8962805632284
2594,25.22976706340069
2595,59.77180357196665
2660,25.64275721932114
2661,61.3100318489393
2726,25.644820100307264
2727,62.247607432455055
2792,25.636235884729075
2793,61.3495187137134
2858,25.64063017975159
2859,62.28294992064968
2924,25.509481743934284
2925,64.12744546222788
2990,25.499407606560332
2991,65.16421237367294
3056,25.503053916333347
3057,64.16949022457594
3122,25.509122532097074
3123,65.1151798205107
3188,24.902683454871127
3189,56.99571092235932
3507,201.19897794078503
2,1, 7, 1, 1, 2,30.00,40.00,Monday
7,25.059330731383326
10,85.0
11,1.0
12,10.0
14,0.0
15,0.0
1992,26.092172961971574
1993,43.69084490550163
2130,15.6
2131,26.7
2132,25.836139847986637
2133,44.49404180092419
2198,25.6836369639956
2199,44.973780098116926
2264,25.352615474443393
2265,52.40307215458962
2330,25.297168801264725
2331,54.44520577874074
2396,25.24340740371219
2397,60.28654103840195
2462,25.230907768180625
2463,59.87342592386986
2528,25.219995539905124
2529,59.007263933427154
2594,25.227475320266237
2595,59.890661271428705
2660,25.64586292093683
2661,61.43605804823894
2726,25.64975359292282
2727,62.36730842192563
2792,25.64006531376148
2793,61.472842604263725
2858,25.642381774122978
2859,62.41432333715245
2924,25.510629010947113
2925,64.27054767101144
2990,25.502749140129033
2991,65.29820568569954
3056,25.50498058769571
3057,64.30952661309652
3122,25.50883984344151
3123,65.26325213477166
3188,24.8997621504403
3189,57.10717739152918
3507,201.19897794078503
2,1, 7, 1, 1, 2,40.00,50.00,Monday
7,25.031545323817188
10,85.5
11,1.0
12,35.0
14,0.0
15,0.0
1992,26.09536491132886
1993,43.682600746285296
2130,15.6
2131,26.7
2132,25.84121948709151
2133,44.48065674882937
2198,25.68649729570815
2199,44.966152509742955
2264,25.354871121678745
2265,52.470926106864304
2330,25.300023880177655
2331,54.527321880324955
2396,25.242784846319164
2397,60.39413034407668
2462,25.23165141394201
2463,59.98311294496711
2528,25.219648382378345
2529,59.119968242775236
2594,25.22511516320875
2595,60.011438253172514
2660,25.64908360490134
2661,61.563675226453164
2726,25.654639066655896
2727,62.489251651692236
2792,25.6437266307611
2793,61.598782824751666
2858,25.643889407370995
2859,62.54871182225381
2924,25.511920845354208
2925,64.41541580221988
2990,25.50607033952365
2991,65.43465209431089
3056,25.506748602903173
3057,64.45247416787774
3122,25.50831824648499
3123,65.41468766032403
3188,24.897359749520493
3189,57.2183047726742
3507,201.19897794078503
2,1, 7, 1, 1, 2,50.00,60.00,Monday
7,25.00375991625105
10,86.0
11,1.0
12,60.0
14,0.0
15,0.0
1992,26.098586150658868
1993,43.674281997938024
2130,15.6
2131,26.7
2132,25.846317935242727
2133,44.467225990898065
2198,25.68938174515908
2199,44.95846026095748
2264,25.357118682214683
2265,52.539553187007115
2330,25.302843455804133
2331,54.61045921915111
2396,25.242171085306357
2397,60.50294064214058
2462,25.231685403266358
2463,60.09660408405823
2528,25.21933097597196
2529,59.23380056767956
2594,25.223451549645006
2595,60.13102974082659
2660,25.652278751683006
2661,61.69291948355045
2726,25.658685791939973
2727,62.61588264406003
2792,25.647364121873842
2793,61.726337872866175
2858,25.646087770249185
2859,62.68215534189038
2924,25.513184205807548
2925,64.56218228918587
2990,25.50849001822772
2991,65.57646044638122
3056,25.50848917808062
3057,64.59731369396923
3122,25.508540615449828
3123,65.56513904969746
3188,24.89559545238465
3189,57.32834730460576
3507,201.19897794078503
2,1, 7, 1, 1, 3, 0.00,10.00,Monday
7,24.95051077496805
10,86.33333333333334
11,1.0
12,73.33333333333333
14,0.0
15,0.0
1992,26.10177292556258
1993,43.66605611377957
2130,15.6
2131,26.7
2132,25.851307176765502
2133,44.45408605398409
2198,25.6922526425213
2199,44.95080761780669
2264,25.359321568915338
2265,52.60859522536122
2330,25.30557999454138
2331,54.69416594491248
2396,25.24105400949822
2397,60.61396826161315
2462,25.23066309842748
2463,60.214261234628076
2528,25.218570090132282
2529,59.34957563651175
2594,25.221881456507695
2595,60.25068928105936
2660,25.654841520575374
2661,61.82476866544793
2726,25.661468041291787
2727,62.747511617228135
2792,25.65040948426776
2793,61.85634998153259
2858,25.64828485621274
2859,62.81592630451732
2924,25.513868963115836
2925,64.71148172637982
2990,25.50964350442395
2991,65.72352060781742
3056,25.5096931685738
3057,64.74451559846607
3122,25.508861792229556
3123,65.71554869997793
3188,24.89445055932716
3189,57.43663625964896
3507,201.19897794078503
2,1, 7, 1, 1, 3,10.00,20.00,Monday
7,24.897261633685048
10,86.66666666666667
11,1.0
12,86.66666666666666
14,0.0
15,0.0
1992,26.104970152651237
1993,43.65780243665279
2130,15.6
2131,26.7
2132,25.856311658265664
2133,44.44091283913829
2198,25.69520100445784
2199,44.94294802196767
2264,25.361482636390782
2265,52.67777233784393
2330,25.308250729759873
2331,54.77804168525484
2396,25.239429828264416
2397,60.72676117375568
2462,25.22889510621421
2463,60.33449173208149
2528,25.217295583762866
2529,59.46707133034169
2594,25.220016668566004
2595,60.37131090836495
2660,25.65681048018185
2661,61.95839580398642
2726,25.663378765005803
2727,62.881950744008485
2792,25.65283902563863
2793,61.98820825942265
2858,25.650108370749567
2859,62.95065835873183
2924,25.513989040198954
2925,64.86242119100024
2990,25.50993063354213
2991,65.87339789687125
3056,25.51030853162255
3057,64.8934463342369
3122,25.508853327125813
3123,65.86669588177223
3188,24.893908888282194
3189,57.54281917405372
3507,201.19897794078503
2,1, 7, 1, 1, 3,20.00,30.00,Monday
7,24.844012492402044
10,87.0
11,1.0
12,100.0
14,0.0
15,0.0
1992,26.108123294180132
1993,43.649666175907534
2130,15.6
2131,26.7
2132,25.86120555186364
2133,44.42803260422436
2198,25.698165098599187
2199,44.93504931649758
2264,25.363593575921325
2265,52.74703900478812
2330,25.310839310406806
2331,54.862040021198
2396,25.23895847041881
2397,60.83516530621675
2462,25.22684751696603
2463,60.45547326315383
2528,25.214495331209996
2529,59.589730036156
2594,25.217897619036535
2595,60.4925962781761
2660,25.659947876275734
2661,62.08709001970264
2726,25.664863791398215
2727,63.01731973749648
2792,25.653491986175027
2793,62.125979720076664
2858,25.651547409716432
2859,63.08617405529534
2924,25.515465264641364
2925,65.00732592948279
2990,25.509865088266164
2991,66.02382042060293
3056,25.509103762647932
3057,65.04860121027654
3122,25.508540650298762
3123,66.01819794594778
3188,24.89389570441641
3189,57.64701465018651
3507,201.19897794078503
2,1, 7, 1, 1, 3,30.00,40.00,Monday
7,24.79076335111904
10,87.33333333333334
11,1.0
12,113.33333333333333
14,0.0
15,0.0
1992,26.11128273566092
1993,43.641514404150286
2130,15.6
2131,26.7
2132,25.866110108192828
2133,44.41512898664832
2198,25.70122564518258
2199,44.926895571763396
2264,25.365679427675175
2265,52.81630597934747
2330,25.31338875084123
2331,54.94601075357617
2396,25.238478705533794
2397,60.943357494221914
2462,25.224750036552933
2463,60.57636972244468
2528,25.211501604305145
2529,59.71284074253963
2594,25.215657926020203
2595,60.614055678248114
2660,25.66305533075615
2661,62.21523391475827
2726,25.66623205983276
2727,63.15245157159482
2792,25.65385086041711
2793,62.264214941373744
2858,25.65281068088781
2859,63.22166883558855
2924,25.516994485071386
2925,65.15117872026504
2990,25.50974027432536
2991,66.1736154638039
3056,25.50765824913377
3057,65.20388480490811
3122,25.50810697852453
3123,66.16931944091249
3188,24.894395250979933
3189,57.74925579740488
3507,201.19897794078503
2,1, 7, 1, 1, 3,40.00,50.00,Monday
7,24.737514209836043
10,87.66666666666667
11,1.0
12,126.66666666666667
14,0.0
15,0.0
1992,26.114397054205764
1993,43.63347995941645
2130,15.6
2131,26.7
2132,25.87090272451281
2133,44.402525510971806
2198,25.7043034188318
2199,44.91869777422192
2264,25.367734828540176
2265,52.88560095663364
2330,25.315886183761585
2331,55.03000723457667
2396,25.237339676286794
2397,61.05372107903996
2462,25.222653072693696
2463,60.697020871426254
2528,25.209000409115554
2529,59.833982867536115
2594,25.213396887057872
2595,60.73534758576658
2660,25.665370837826206
2661,62.34566941980611
2726,25.667493782129984
2727,63.28733446609611
2792,25.65460733223359
2793,62.40038516473637
2858,25.65395925359889
2859,63.35695302220382
2924,25.51778659992235
2925,65.29708073836031
2990,25.50959774205514
2991,66.32265822965819
3056,25.506754910016472
3057,65.35630544724191
3122,25.50765154842583
3123,66.31970434631404
3188,24.895314820704076
3189,57.84987034763615
3507,201.19897794078503
2,1, 7, 1, 1, 3,50.00,60.00,Monday
7,24.68426506855304
10,88.0
11,1.0
12,140.0
14,0.0
15,0.0
1992,26.117445517168193
1993,43.625619332298385
2130,15.6
2131,26.7
2132,25.875530999673256
2133,44.39035726789374
2198,25.707360096884518
2199,44.91055753531857
2264,25.36975027590021
2265,52.954956763988626
2330,25.318313118104275
2331,55.114099947655845
2396,25.235653184868067
2397,61.16586630448377
2462,25.220529320292247
2463,60.81753444397457
2528,25.206952526060036
2529,59.95329249755663
2594,25.21113585456712
2595,60.85640753602849
2660,25.666978002499896
2661,62.47812145529722
2726,25.6686008050115
2727,63.422172889059894
2792,25.655717182218925
2793,62.534661483648904
2858,25.65499083492549
2859,63.492051940961446
2924,25.517938444893037
2925,65.44469209179786
2990,25.509402171537104
2991,66.47110904227534
3056,25.50635727397866
3057,65.50601233867032
3122,25.507189978390137
3123,66.46932104506119
3188,24.896561763610478
3189,57.94917605872855
3507,201.19897794078503
2,1, 7, 1, 1, 4, 0.00,10.00,Monday
7,24.620851641025524
10,88.33333333333334
11,0.9166666666666667
12,140.0
14,0.0
15,0.0
1992,26.120461265624076
1993,43.61784390128754
2130,15.6
2131,26.7
2132,25.880070920694553
2133,44.378423358064346
2198,25.71043723556404
2199,44.90236310087943
2264,25.371788211237615
2265,53.02068824156614
2330,25.320753411977993
2331,55.193767541924046
2396,25.23351726071267
2397,61.27454731690188
2462,25.21812145287259
2463,60.93362815985765
2528,25.204908174367233
2529,60.06719706470872
2594,25.208675161352474
2595,60.97274011486291
2660,25.66817831642921
2661,62.605100229913646
2726,25.669486757563032
2727,63.55079593662282
2792,25.65691259313615
2793,62.66164165833974
2858,25.655893273415902
2859,63.620593163296626
2924,25.51774268167172
2925,65.58603458125798
2990,25.50905711508164
2991,66.6125129061103
3056,25.506145313634313
3057,65.64738847019265
3122,25.506683172879857
3123,66.61148159049695
3188,24.898106247025016
3189,58.04249452473329
3507,201.19897794078503
2,1, 7, 1, 1, 4,10.00,20.00,Monday
7,24.55743821349801
10,88.66666666666667
11,0.8333333333333334
12,140.0
14,0.0
15,0.0
1992,26.123471649983383
1993,43.61008232528982
2130,15.6
2131,26.7
2132,25.884588242777536
2133,44.36655319865007
2198,25.71356992726304
2199,44.89402311735897
2264,25.373883457686986
2265,53.080480700209286
2330,25.323261436590066
2331,55.2661608605827
2396,25.23108566180234
2397,61.37613534699149
2462,25.215388483258856
2463,61.04218788221698
2528,25.202638430473733
2529,60.1732708124837
2594,25.20595629941903
2595,61.08129753467087
2660,25.669182931376366
2661,62.7218573471219
2726,25.670155888234937
2727,63.66921327515631
2792,25.658005154476076
2793,62.77805752283009
2858,25.656651187953752
2859,63.73865681540085
2924,25.517414594619208
2925,65.71605297930088
2990,25.508557176703423
2991,66.74269479685478
3056,25.50590318484793
3057,65.77704191230428
3122,25.50610298226068
3123,66.74208048948847
3188,24.89989515245694
3189,58.126997871913346
3507,201.19897794078503
2,1, 7, 1, 1, 4,20.00,30.00,Monday
7,24.494024785970495
10,89.0
11,0.75
12,140.0
14,0.0
15,0.0
1992,26.12648145247862
1993,43.60232476538756
2130,15.6
2131,26.7
2132,25.88909874587296
2133,44.354706658674374
2198,25.716758742594866
2199,44.88553513890609
2264,25.37603429368079
2265,53.13359256833336
2330,25.325843135413237
2331,55.330364919108334
2396,25.228479261752344
2397,61.46917685045993
2462,25.212423368520582
2463,61.141810479412825
2528,25.200156262105494
2529,60.2703988718313
2594,25.203042590779376
2595,61.18077546676801
2660,25.670059852310082
2661,62.82689555428479
2726,25.670643466588416
2727,63.776045721067575
2792,25.658950200445922
2793,62.88282615936714
2858,25.65727072745281
2859,63.84497070436914
2924,25.517023137757267
2925,65.83316658131818
2990,25.507935571706483
2991,66.86021734688758
3056,25.505578135174677
3057,65.89386747980333
3122,25.505450277044982
3123,66.85982118941749
3188,24.9018320519142
3189,58.20202041247627
3507,201.19897794078503
2,1, 7, 1, 1, 4,30.00,40.00,Monday
7,24.43061135844298
10,89.33333333333334
11,0.6666666666666667
12,140.0
14,0.0
15,0.0
1992,26.129483193293417
1993,43.594590878127335
2130,15.6
2131,26.7
2132,25.8935899371429
2133,44.34291376628472
2198,25.71998220193435
2199,44.87695762230951
2264,25.378224190117965
2265,53.18001793527822
2330,25.328481583094256
2331,55.386380243388125
2396,25.22576950580833
2397,61.553368324582266
2462,25.209331317769692
2463,61.23207469968842
2528,25.197559733076616
2529,60.35819246295409
2594,25.200023419170506
2595,61.27081090875103
2660,25.670824327978004
2661,62.92016734407131
2726,25.6709975651854
2727,63.87113566138443
2792,25.659787510628647
2793,62.975814971257336
2858,25.657784833940333
2859,63.939437931802665
2924,25.516577293787886
2925,65.93739918365456
2990,25.507235614782886
2991,66.96498407041197
3056,25.50520535139252
3057,65.99778852663265
3122,25.504751842088424
3123,66.96466690730871
3188,24.90381058777553
3189,58.26787489188511
3507,201.19897794078503
2,1, 7, 1, 1, 4,40.00,50.00,Monday
7,24.367197930915466
10,89.66666666666666
11,0.5833333333333333
12,140.0
14,0.0
15,0.0
1992,26.132468993183437
1993,43.586897847539234
2130,15.6
2131,26.7
2132,25.89804673837113
2133,44.33121202335698
2198,25.723214912928942
2199,44.86835912259162
2264,25.380438683230054
2265,53.219917904549455
2330,25.331159762334625
2331,55.434410378895706
2396,25.222990329814692
2397,61.62878362993736
2462,25.206172438475313
2463,61.31296711502734
2528,25.19492185486487
2529,60.436591565894545
2594,25.196956544163015
2595,61.35140405661448
2660,25.671490180295297
2661,63.00194793392764
2726,25.67125792395286
2727,63.954662814901496
2792,25.660566479968075
2793,63.05716005619048
2858,25.658230886668097
2859,64.02224510457022
2924,25.51608036174173
2925,66.02910958663422
2990,25.506487930089584
2991,67.05725738486488
3056,25.504826192359438
3057,66.0890177891836
3122,25.504035933277628
3123,67.05688738577125
3188,24.905745615625552
3189,58.32504063941252
3507,201.19897794078503
2,1, 7, 1, 1, 4,50.00,60.00,Monday
7,24.303784503387952
10,90.0
11,0.5
12,140.0
14,0.0
15,0.0
1992,26.135434927300302
1993,43.57925793140931
2130,15.6
2131,26.7
2132,25.902461326325096
2133,44.319626375178586
2198,25.72643647027539
2199,44.85979038125074
2264,25.38267020973986
2265,53.25341538560999
2330,25.33386843678642
2331,55.4746239841193
2396,25.22015595004915
2397,61.6955366132828
2462,25.202966082356475
2463,61.3846014301962
2528,25.1922694818845
2529,60.50567538145607
2594,25.19386422872628
2595,61.42265109199795
2660,25.6720763707175
2661,63.07243686314929
2726,25.671448357281204
2727,64.02681934905105
2792,25.661315084313102
2793,63.12703191685801
2858,25.658635092668582
2859,64.09358061622208
2924,25.515540179717846
2925,66.10859019070031
2990,25.50570550484104
2991,67.13731859034036
3056,25.50445801822316
3057,66.16780587075839
3122,25.503318361747205
3123,67.13674856210882
3188,24.90758127466634
3189,58.373868497618474
3507,201.19897794078503
2,1, 7, 1, 1, 5, 0.00,10.00,Monday
7,24.27155556499841
10,90.0
11,0.5833333333333334
12,125.0
14,0.0
15,0.0
1992,25.594643844952802
1993,45.26102232406306
2130,17.8
2131,25.6
2132,25.9068318578562
2133,44.30815922274133
2198,25.729632261531613
2199,44.85129195285143
2264,25.424966450107757
2265,52.85192322520152
2330,25.336374252426104
2331,55.5159298459519
2396,24.798172235609815
2397,62.749595605133315
2462,24.958645902837603
2463,62.024503134858996
2528,24.71791555112491
2529,61.72676371721359
2594,24.9694635855178
2595,62.01541666858484
2660,25.672471213890514
2661,63.14401792500909
2726,25.67145013387378
2727,64.10003889637362
2792,25.661757076339782
2793,63.19842753877447
2858,25.6587155123253
2859,64.16648592235742
2924,25.514820075586602
2925,66.18907681824585
2990,25.504748772247265
2991,67.21832208791344
3056,25.50378893650944
3057,66.24807137040575
3122,25.50228057867195
3123,67.21813812748441
3188,24.909149478798184
3189,58.42407675568193
3507,7672.954119590836
2,1, 7, 1, 1, 5,10.00,20.00,Monday
7,24.239326626608865
10,90.0
11,0.6666666666666667
12,110.0
14,0.0
15,0.0
1992,24.875498489832783
1993,47.51425251027303
2130,17.8
2131,25.6
2132,25.91139108583385
2133,44.29620272148437
2198,25.732959030227786
2199,44.84244547427378
2264,25.425208369787903
2265,52.44714078596884
2330,25.338666492770297
2331,55.56344964174398
2396,24.28737002608404
2397,63.71112320715334
2462,24.638333686882948
2463,62.696851964678835
2528,24.155372449634662
2529,62.84376011991887
2594,24.671474312512476
2595,62.651244559722016
2660,25.672706453372175
2661,63.22397652171814
2726,25.671272158706717
2727,64.18169422908217
2792,25.6619185746894
2793,63.27865045311435
2858,25.65848690385886
2859,64.24831931148877
2924,25.513879930063563
2925,66.27853917720714
2990,25.503561530965253
2991,67.30825156434285
3056,25.502771002270403
3057,66.33782096966642
3122,25.500863280735278
3123,67.30905613847906
3188,24.910550353630853
3189,58.481031338989865
3507,8042.746245209727
2,1, 7, 1, 1, 5,20.00,30.00,Monday
7,24.20709768821932
10,90.0
11,0.75
12,95.0
14,0.0
15,0.0
1992,24.5038228256778
1993,48.79757689898507
2130,17.8
2131,25.6
2132,25.916110950953595
2133,44.28382732558024
2198,25.736402108492083
2199,44.83329426795787
2264,25.34130783299029
2265,52.31416568119977
2330,25.340819708186427
2331,55.618629250326
2396,24.02614787199324
2397,63.600945056564704
2462,24.44476516370156
2463,62.81376421002904
2528,23.88258910830308
2529,62.75360771251008
2594,24.48957259142066
2595,62.77747217149323
2660,25.672848066279748
2661,63.3144218564403
2726,25.670981980455007
2727,64.27387652851354
2792,25.661934765306395
2793,63.36955649868593